# OOMMF OVF 2.0
#
# Segment count: 000001
#
# Begin: Segment
# Begin: Header
#
# Title: SPIRIT Version 2.0.1 (Not Available)
#
# Desc: -
#
# valuedim: 3   ## field dimensionality
# valueunits: none none none
# valuelabels: spin_x spin_y spin_z
#
## Fundamental mesh measurement unit. Treated as a label:
# meshunit: nm
#
# xmin: 0
# ymin: 0
# zmin: 0
# xmax: 3.1
# ymax: 3.1
# zmax: 3.1
#
# meshtype: rectangular
# xbase: 0
# ybase: 0
# zbase: 0
# xstepsize: 0.1
# ystepsize: 0.1
# zstepsize: 0.1
# xnodes: 32
# ynodes: 32
# znodes: 32
#
# End: Header
#
# Begin: Data Text
       -0.318880915642       -0.318874716759       -0.892488360405
       -0.314023703337       -0.320384711027       -0.893690943718
       -0.305300503969       -0.322551220655       -0.895975649357
       -0.293538391590       -0.325019031763       -0.899028420448
       -0.279163062572       -0.327489972115       -0.902798235416
       -0.262513130903       -0.329946517944       -0.906853497028
       -0.243755787611       -0.332162231207       -0.911218106747
       -0.223232537508       -0.334347546101       -0.915680229664
       -0.200945600867       -0.336152732372       -0.920036494732
       -0.177316665649       -0.337989568710       -0.924389183521
       -0.152247190475       -0.339343190193       -0.928234577179
       -0.126181304455       -0.340689092875       -0.931697785854
       -0.099075764418       -0.341589778662       -0.934630393982
       -0.071348436177       -0.342432558537       -0.936830103397
       -0.042982649058       -0.342844218016       -0.938437283039
       -0.014414131641       -0.343188554049       -0.939158320427
        0.014381553978       -0.343077659607       -0.939172446728
        0.042949009687       -0.342929571867       -0.938361763954
        0.071318872273       -0.342320889235       -0.936840713024
        0.099041782320       -0.341669321060       -0.934561669827
        0.126151889563       -0.340575456619       -0.931690871716
        0.152217969298       -0.339424669743       -0.928201973438
        0.177275493741       -0.337858736515       -0.924308001995
        0.200928285718       -0.336236417294       -0.920048296452
        0.223199173808       -0.334247171879       -0.915643274784
        0.243717953563       -0.332197427750       -0.911142945290
        0.262472450733       -0.329852700233       -0.906785786152
        0.279104650021       -0.327482312918       -0.902657330036
        0.293512284756       -0.324961543083       -0.899001300335
        0.305275321007       -0.322562038898       -0.895942986012
        0.314014703035       -0.320366889238       -0.893712222576
        0.318882256746       -0.318890750408       -0.892536580563
       -0.320375800133       -0.314013212919       -0.893663525581
       -0.315705031157       -0.315690040588       -0.894782543182
       -0.307163804770       -0.318062871695       -0.896941125393
       -0.295419722795       -0.320515811443       -0.900044679642
       -0.281105577946       -0.323177903891       -0.903653562069
       -0.264348357916       -0.325543791056       -0.907900035381
       -0.245641946793       -0.328044265509       -0.912225425243
       -0.224881097674       -0.330035775900       -0.916842579842
       -0.202619954944       -0.332178443670       -0.921165704727
       -0.178638413548       -0.333705842495       -0.925549924374
       -0.153602316976       -0.335490852594       -0.929507553577
       -0.127130925655       -0.336493939161       -0.933057725430
       -0.100013010204       -0.337781906128       -0.935901463032
       -0.071847967803       -0.338289529085       -0.938309669495
       -0.043461903930       -0.339086472988       -0.939781129360
       -0.014423905872       -0.339058250189       -0.940661847591
        0.014389599673       -0.339329421520       -0.940532743931
        0.043431308120       -0.338788032532       -0.939832687378
        0.071811467409       -0.338548749685       -0.938179254532
        0.099987260997       -0.337498009205       -0.935961306095
        0.127093225718       -0.336736857891       -0.932945847511
        0.153571873903       -0.335209995508       -0.929510712624
        0.178608179092       -0.333932727575       -0.925482511520
        0.202609524131       -0.331963002682       -0.921252429485
        0.224834486842       -0.330199718475       -0.916714251041
        0.245612487197       -0.327838212252       -0.912213563919
        0.264297127724       -0.325655758381       -0.907764792442
        0.281083494425       -0.323029726744       -0.903653562069
        0.295376598835       -0.320585489273       -0.899947404861
        0.307146728039       -0.317976385355       -0.896946907043
        0.315687328577       -0.315728247166       -0.894771754742
        0.320381999016       -0.314010232687       -0.893728971481
       -0.322550415993       -0.305279076099       -0.895943880081
       -0.318038314581       -0.307165563107       -0.896908521652
       -0.309578478336       -0.309547066689       -0.899064421654
       -0.298059165478       -0.312348395586       -0.902007639408
       -0.283660590649       -0.314848065376       -0.905811488628
       -0.267050236464       -0.317631363869       -0.909831881523
       -0.248072922230       -0.319826245308       -0.914489269257
       -0.227435320616       -0.322356730700       -0.918926775455
       -0.204735800624       -0.324069172144       -0.923649489880
       -0.180851429701       -0.326221227646       -0.927830517292
       -0.155201986432       -0.327400892973       -0.932017028332
       -0.128832235932       -0.329136580229       -0.935461461544
       -0.101017147303       -0.329775989056       -0.938641965389
       -0.072931095958       -0.331018209457       -0.940816164017
       -0.043778687716       -0.331110566854       -0.942606508732
       -0.014821433462       -0.331826895475       -0.943227231503
        0.014789435081       -0.331360012293       -0.943369805813
        0.043740727007       -0.331548959017       -0.942403793335
        0.072906337678       -0.330556631088       -0.940941512585
        0.100976869464       -0.330199569464       -0.938472688198
        0.128813251853       -0.328701764345       -0.935577869415
        0.155162960291       -0.327793210745       -0.931882619858
        0.180838346481       -0.325833171606       -0.927940428257
        0.204685449600       -0.324390023947       -0.923477768898
        0.227417454123       -0.322015285492       -0.918983519077
        0.248017400503       -0.320072650909       -0.914315938950
        0.267042011023       -0.317373365164       -0.909897685051
        0.283613264561       -0.315024733543       -0.905685186386
        0.298046082258       -0.312169939280       -0.902038395405
        0.309556484222       -0.309658974409       -0.899031102657
        0.318043708801       -0.307100862265       -0.896980464458
        0.322550952435       -0.305315256119       -0.895988821983
       -0.324994504452       -0.293524950743       -0.898975551128
       -0.320519864559       -0.295371204615       -0.899980247021
       -0.312303185463       -0.298084676266       -0.901979506016
       -0.300730794668       -0.300676137209       -0.905058741570
       -0.286620289087       -0.303703546524       -0.908661186695
       -0.269762396812       -0.306078672409       -0.913041114807
       -0.251026213169       -0.308933347464       -0.917378008366
       -0.229909092188       -0.310853540897       -0.922267913818
       -0.207458734512       -0.313408166170       -0.926740169525
       -0.182890862226       -0.314780503511       -0.931415915489
       -0.157470166683       -0.316908150911       -0.935280561447
       -0.130251705647       -0.317727327347       -0.939220130444
       -0.102664187551       -0.319400250912       -0.942048370838
       -0.073611438274       -0.319629430771       -0.944698035717
       -0.044693242759       -0.320802837610       -0.946112513542
       -0.014700105414       -0.320446521044       -0.947157502174
        0.014664443210       -0.321073085070       -0.946925520897
        0.044665366411       -0.320158511400       -0.946281969547
        0.073569118977       -0.320229977369       -0.944455504417
        0.102645725012       -0.318786531687       -0.942222714424
        0.130202129483       -0.318282335997       -0.938983201981
        0.157460764050       -0.316348493099       -0.935452759266
        0.182835549116       -0.315270543098       -0.931191623211
        0.207441017032       -0.312897831202       -0.926825642586
        0.229856058955       -0.311264753342       -0.922077834606
        0.251018255949       -0.308524996042       -0.917469382286
        0.269706636667       -0.306384980679       -0.912866413593
        0.286606997252       -0.303398042917       -0.908708333969
        0.300700992346       -0.300891071558       -0.904988229275
        0.312312602997       -0.297927230597       -0.902076184750
        0.320521801710       -0.295486152172       -0.900020599365
        0.325000166893       -0.293498456478       -0.899043262005
       -0.327462494373       -0.279113054276       -0.902688145638
       -0.323132306337       -0.281114846468       -0.903604388237
       -0.314875245094       -0.283588320017       -0.905744194984
       -0.303624808788       -0.286671131849       -0.908620417118
       -0.289284914732       -0.289201200008       -0.912495911121
       -0.272801071405       -0.292322248220       -0.916602432728
       -0.253612488508       -0.294449180365       -0.921447455883
       -0.232877224684       -0.297331005335       -0.926003336906
       -0.209712997079       -0.298914015293       -0.931032001972
       -0.185517221689       -0.301409542561       -0.935254812241
       -0.159188523889       -0.302417039871       -0.939830064774
       -0.132353305817       -0.304500311613       -0.943272948265
       -0.103672109544       -0.304885625839       -0.946727931499
       -0.075027570128       -0.306501448154       -0.948929131031
       -0.044898923486       -0.306288212538       -0.950910091400
       -0.015329088084       -0.307359874249       -0.951472818851
        0.015297766775       -0.306551188231       -0.951711595058
        0.044857937843       -0.307065963745       -0.950610935688
        0.075007013977       -0.305707097054       -0.949148178101
        0.103626184165       -0.305633485317       -0.946471452713
        0.132342249155       -0.303756207228       -0.943484961987
        0.159130543470       -0.303085118532       -0.939552366734
        0.185516372323       -0.300746977329       -0.935457885265
        0.209647625685       -0.299484878778       -0.930762887001
        0.232864335179       -0.296747088432       -0.926101207733
        0.253554195166       -0.294912666082       -0.921237826347
        0.272797405720       -0.291875213385       -0.916700780392
        0.289251357317       -0.289550989866       -0.912396788597
        0.303640574217       -0.286392390728       -0.908753156662
        0.314869999886       -0.283807575703       -0.905752599239
        0.323141306639       -0.280994981527       -0.903693616390
        0.327459514141       -0.279164820910       -0.902721464634
       -0.329901903868       -0.262494027615       -0.906767249107
       -0.325550526381       -0.264284163713       -0.907817959785
       -0.317565798759       -0.267096251249       -0.909809768200
       -0.306136846542       -0.269662410021       -0.912975788116
       -0.292210876942       -0.272889196873       -0.916568338871
       -0.275300443172       -0.275182992220       -0.921114444733
       -0.256597250700       -0.278313606977       -0.925595998764
       -0.235173553228       -0.280092656612       -0.930766344070
       -0.212528064847       -0.282932400703       -0.935342133045
       -0.187404051423       -0.284110337496       -0.940352737904
       -0.161609038711       -0.286559790373       -0.944336950779
       -0.133607596159       -0.287105053663       -0.948493182659
       -0.105511330068       -0.289135217667       -0.951467692852
       -0.075537078083       -0.289075464010       -0.954346239567
       -0.046012580395       -0.290587216616       -0.955764114857
       -0.015017420985       -0.289910614491       -0.956935048103
        0.014981611632       -0.290868997574       -0.956631481647
        0.045987386256       -0.289618968964       -0.956017196178
        0.075491301715       -0.289996773005       -0.954027056694
        0.105498440564       -0.288209289312       -0.951714456081
        0.133561402559       -0.287980377674       -0.948251545429
        0.161605790257       -0.285712271929       -0.944573044777
        0.187340870500       -0.284867763519       -0.940059065819
        0.212523311377       -0.282178938389       -0.935502767563
        0.235112220049       -0.280727744102       -0.930518031120
        0.256601035595       -0.277704566717       -0.925742745399
        0.275262355804       -0.275688767433       -0.920981705189
        0.292232871056       -0.272464066744       -0.916740596294
        0.306118726730       -0.270008981228       -0.912932753563
        0.317580997944       -0.266853779554       -0.909931421280
        0.325545400381       -0.264444559813       -0.907833218575
        0.329901456833       -0.262440234423       -0.906818687916
       -0.332149416208       -0.243714272976       -0.911145508289
       -0.327976703644       -0.245656654239       -0.912156760693
       -0.319865137339       -0.247981354594       -0.914410650730
       -0.308829903603       -0.251104384661       -0.917348504066
       -0.294543296099       -0.253480941057       -0.921385049820
       -0.278164744377       -0.256726354361       -0.925567209721
       -0.258813947439       -0.258659482002       -0.930637538433
       -0.238010257483       -0.261732906103       -0.935343444347
       -0.214441865683       -0.263085603714       -0.940672934055
       -0.190003782511       -0.265850245953       -0.945157349110
       -0.163026407361       -0.266568303108       -0.949959933758
       -0.135761305690       -0.268929839134       -0.953548192978
       -0.106262691319       -0.269025295973       -0.957262039185
       -0.077065423131       -0.270937591791       -0.959528863430
       -0.046000242233       -0.270409762859       -0.961654722691
       -0.015816425905       -0.271798759699       -0.962221980095
        0.015787361190       -0.270679682493       -0.962529778481
        0.045959483832       -0.271506071091       -0.961320459843
        0.077047936618       -0.269836634398       -0.959799528122
        0.106213465333       -0.270068496466       -0.956945300102
        0.135755255818       -0.267898350954       -0.953808009624
        0.162966147065       -0.267513543367       -0.949645280838
        0.189998969436       -0.264913201332       -0.945348322392
        0.214381679893       -0.263905495405       -0.940401136875
        0.238017156720       -0.260946512222       -0.935527086258
        0.258770734072       -0.259335726500       -0.930467069149
        0.278188705444       -0.256132155657       -0.925767660141
        0.294519990683       -0.253983646631       -0.921310842037
        0.308847546577       -0.250710815191       -0.917493879795
        0.319854915142       -0.248276889324       -0.914397954941
        0.327987343073       -0.245484039187       -0.912251472473
        0.332155078650       -0.243788272142       -0.911198675632
       -0.334304749966       -0.223224207759       -0.915617585182
       -0.330054014921       -0.224810466170       -0.916770935059
       -0.322262644768       -0.227490767837       -0.918882966042
       -0.310934484005       -0.229789346457       -0.922207415104
       -0.297174900770       -0.232983887196       -0.925933361053
       -0.280222743750       -0.235004350543       -0.930697321892
       -0.261545002460       -0.238183215261       -0.935323357582
       -0.239861190319       -0.239667698741       -0.940750598907
       -0.217072710395       -0.242636203766       -0.945534348488
       -0.191466271877       -0.243509009480       -0.950842738152
       -0.165358453989       -0.246156305075       -0.955063462257
       -0.136668771505       -0.246379628778       -0.959457397461
       -0.108105279505       -0.248636975884       -0.962559044361
       -0.077299199998       -0.248258441687       -0.965621113777
       -0.047215435654       -0.250038266182       -0.967093706131
       -0.015311370604       -0.249060064554       -0.968367040157
        0.015277663246       -0.250315964222       -0.968032419682
        0.047193903476       -0.248780712485       -0.967393696308
        0.077253758907       -0.249470323324       -0.965274393559
        0.108096450567       -0.247431010008       -0.962839245796
        0.136620834470       -0.247521579266       -0.959179282188
        0.165353968740       -0.245039895177       -0.955287754536
        0.191406473517       -0.244513317943       -0.950543224812
        0.217079684138       -0.241665229201       -0.945743799210
        0.239812597632       -0.240522235632       -0.940539896488
        0.261567324400       -0.237405166030       -0.935539960861
        0.280195683241       -0.235679402947       -0.930595695972
        0.297197967768       -0.232422843575       -0.926112294197
        0.310915738344       -0.230239495635       -0.922155976295
        0.322279334068       -0.227168709040       -0.919008433819
        0.330050081015       -0.225016459823       -0.916784107685
        0.334310770035       -0.223155766726       -0.915683865547
       -0.336184591055       -0.200929313898       -0.920084238052
       -0.332127779722       -0.202663064003       -0.921179592609
       -0.324127167463       -0.204634264112       -0.923587739468
       -0.313270121813       -0.207549825311       -0.926683962345
       -0.299020886421       -0.209547266364       -0.930932343006
       -0.282742142677       -0.212682142854       -0.935297131538
       -0.263259977102       -0.214238151908       -0.940617859364
       -0.242405131459       -0.217286914587       -0.945509970188
       -0.218498349190       -0.218265295029       -0.951106727123
       -0.193847000599       -0.221089303493       -0.955795407295
       -0.166338399053       -0.221453875303       -0.960894763470
       -0.138716548681       -0.223959714174       -0.964707374573
       -0.108513325453       -0.223707169294       -0.968612611294
       -0.078836448491       -0.225813493133       -0.970987856388
       -0.046961445361       -0.224973335862       -0.973241746426
       -0.016238536686       -0.226615339518       -0.973847985268
        0.016213197261       -0.225221380591       -0.974168956280
        0.046924002469       -0.226346105337       -0.972908973694
        0.078823536634       -0.224448502064       -0.971283614635
        0.108465164900       -0.225010097027       -0.968281686306
        0.138711884618       -0.222672134638       -0.964955806732
        0.166284725070       -0.222643658519       -0.960594475269
        0.193857088685       -0.219940260053       -0.956044435501
        0.218449592590       -0.219304367900       -0.950874984264
        0.242428645492       -0.216323420405       -0.945752322674
        0.263226598501       -0.215091556311       -0.940480113029
        0.282768845558       -0.211940199137       -0.935504138470
        0.298995941877       -0.210169330239       -0.930848479271
        0.313290506601       -0.207057446241       -0.926833033562
        0.324118912220       -0.204999178648       -0.923575401306
        0.332140058279       -0.202444940805       -0.921274363995
        0.336184769869       -0.201012581587       -0.920117378235
       -0.337931603193       -0.177309826016       -0.924302041531
       -0.333756744862       -0.178577110171       -0.925552606583
       -0.326123058796       -0.180927753448       -0.927825689316
       -0.314875781536       -0.182751148939       -0.931349635124
       -0.301251232624       -0.185662999749       -0.935267508030
       -0.284266084433       -0.187205955386       -0.940277516842
       -0.265617430210       -0.190200030804       -0.945111453533
       -0.243723630905       -0.191223770380       -0.950787007809
       -0.220821753144       -0.194106325507       -0.955789566040
       -0.194819778204       -0.194547906518       -0.961343288422
       -0.168453648686       -0.197205737233       -0.965779781342
       -0.139213830233       -0.197057694197       -0.970467925072
       -0.110261604190       -0.199400946498       -0.973690271378
       -0.078766822815       -0.198680996895       -0.976903259754
       -0.048217803240       -0.200641959906       -0.978484988213
       -0.015556387603       -0.199377745390       -0.979791522026
        0.015527633950       -0.200888648629       -0.979483425617
        0.048200834543       -0.199137136340       -0.978779613972
        0.078727163374       -0.200142532587       -0.976586759090
        0.110258057714       -0.197960838675       -0.973977684975
        0.139166310430       -0.198420614004       -0.970169901848
        0.168460562825       -0.195881307125       -0.966034412384
        0.194775030017       -0.195769935846       -0.961108922958
        0.220841795206       -0.192956313491       -0.956036806107
        0.243689447641       -0.192261263728       -0.950632274151
        0.265646070242       -0.189271107316       -0.945340275764
        0.284233987331       -0.188007876277       -0.940157830715
        0.301279097795       -0.184990406036       -0.935451209545
        0.314857602119       -0.183287352324       -0.931296169758
        0.326141536236       -0.180539369583       -0.927947640419
        0.333756446838       -0.178821623325       -0.925571024418
        0.337935745716       -0.177223369479       -0.924356579781
       -0.339359700680       -0.152216628194       -0.928240001202
       -0.335398882627       -0.153637111187       -0.929438292980
       -0.327489703894       -0.155100435019       -0.932016611099
       -0.316775619984       -0.157591432333       -0.935303390026
       -0.302550166845       -0.159009099007       -0.939754545689
       -0.286356419325       -0.161794990301       -0.944347321987
       -0.266768097878       -0.162791773677       -0.949896156788
       -0.245884954929       -0.165597900748       -0.955027163029
       -0.221710950136       -0.166060343385       -0.960850477219
       -0.196900203824       -0.168751850724       -0.965775847435
       -0.168965950608       -0.168657541275       -0.971078693867
       -0.141060769558       -0.171138316393       -0.975095808506
       -0.110302492976       -0.170499041677       -0.979171335697
       -0.080247595906       -0.172685384750       -0.981699883938
       -0.047726970166       -0.171533331275       -0.984022021294
       -0.016573775560       -0.173355668783       -0.984714090824
        0.016553761438       -0.171736150980       -0.984996855259
        0.047696303576       -0.173131629825       -0.983734369278
        0.080239430070       -0.171103954315       -0.981971502304
        0.110263161361       -0.172019377351       -0.978890955448
        0.141063123941       -0.169652387500       -0.975341022015
        0.168924629688       -0.170049294829       -0.970839500427
        0.196915939450       -0.167424216866       -0.966017901897
        0.221675306559       -0.167275696993       -0.960676014423
        0.245911628008       -0.164481759071       -0.955259680748
        0.266739010811       -0.163781255484       -0.949776053429
        0.286377847195       -0.160928770900       -0.944519042969
        0.302529543638       -0.159729510546       -0.939683079720
        0.316792964935       -0.157016292214       -0.935429692268
        0.327480733395       -0.155518770218       -0.931998550892
        0.335410743952       -0.153381034732       -0.929521739483
        0.339359015226       -0.152309492230       -0.928264379501
       -0.340646743774       -0.126187413931       -0.931667447090
       -0.336538285017       -0.127056390047       -0.933030247688
       -0.329024314880       -0.128918036819       -0.935457885265
       -0.317835748196       -0.130100697279       -0.939156711102
       -0.304321706295       -0.132514998317       -0.943294227123
       -0.287300467491       -0.133399575949       -0.948486268520
       -0.268684118986       -0.135988742113       -0.953560709953
       -0.246633633971       -0.136405035853       -0.959449827671
       -0.223655298352       -0.138999208808       -0.964692711830
       -0.197352886200       -0.138900727034       -0.970427751541
       -0.170799598098       -0.141394600272       -0.975099027157
       -0.141132086515       -0.140790656209       -0.979927897453
       -0.111897237599       -0.143097236753       -0.983365237713
       -0.079879783094       -0.142019152641       -0.986666560173
       -0.048977006227       -0.144056230783       -0.988353133202
       -0.015741139650       -0.142542690039       -0.989665448666
        0.015719313174       -0.144248798490       -0.989408850670
        0.048965174705       -0.142358571291       -0.988596677780
        0.079847648740       -0.143670991063       -0.986393690109
        0.111895881593       -0.141470849514       -0.983591794968
        0.141097143292       -0.142336785793       -0.979702353477
        0.170809343457       -0.139903500676       -0.975318014622
        0.197320744395       -0.140285521746       -0.970255672932
        0.223675340414       -0.137702494860       -0.964903950691
        0.246606200933       -0.137575089931       -0.959325671196
        0.268708556890       -0.134936958551       -0.953746378422
        0.287279248238       -0.134306147695       -0.948404848576
        0.304342806339       -0.131750643253       -0.943435370922
        0.317825168371       -0.130704984069       -0.939124703407
        0.329040586948       -0.128476485610       -0.935558080673
        0.336539626122       -0.127328500152       -0.933048307896
        0.340655475855       -0.126089632511       -0.931724607944
       -0.341591686010       -0.099037460983       -0.934594929218
       -0.337704330683       -0.100062124431       -0.935893714428
       -0.329857110977       -0.100900523365       -0.938598036766
       -0.319246798754       -0.102792568505       -0.942056357861
       -0.305041551590       -0.103483676910       -0.946680545807
       -0.288910984993       -0.105713404715       -0.951482355595
       -0.269245475531       -0.106009848416       -0.957202374935
       -0.248352214694       -0.108372338116       -0.962576746941
       -0.223985552788       -0.108207441866       -0.968554079533
       -0.199069216847       -0.110584028065       -0.973713576794
       -0.170829921961       -0.109958536923       -0.979141294956
       -0.142729803920       -0.112261317670       -0.983373165131
       -0.111571177840       -0.111201524734       -0.987513542175
       -0.081251814961       -0.113350622356       -0.990226566792
       -0.048269625753       -0.111900575459       -0.992543399334
       -0.016810849309       -0.113821916282       -0.993357181549
        0.016797482967       -0.112037464976       -0.993558347225
        0.048248652369       -0.113663442433       -0.992341458797
        0.081246823072       -0.111608706415       -0.990418016911
        0.111544817686       -0.112880431116       -0.987321138382
        0.142734214664       -0.110628373921       -0.983559548855
        0.170802503824       -0.111495457590       -0.978980123997
        0.199083030224       -0.109123289585       -0.973895013332
        0.223962008953       -0.109546862543       -0.968437492847
        0.248370692134       -0.107140049338       -0.962737917900
        0.269227683544       -0.107098765671       -0.957126498222
        0.288932383060       -0.104760617018       -0.951623499393
        0.305027782917       -0.104274950922       -0.946632623672
        0.319266021252       -0.102159917355       -0.942165374756
        0.329858869314       -0.101361043751       -0.938608407974
        0.337718784809       -0.099779754877       -0.935969412327
        0.341597169638       -0.099139831960       -0.934628546238
       -0.342394024134       -0.071357659996       -0.936817526817
       -0.338331729174       -0.071768276393       -0.938266098499
       -0.330898493528       -0.073022589087       -0.940817832947
       -0.319745659828       -0.073452211916       -0.944630980492
       -0.306305408478       -0.075197346509       -0.948942780495
       -0.289263755083       -0.075307138264       -0.954270243645
       -0.270672380924       -0.077305406332       -0.959544420242
       -0.248514026403       -0.077009461820       -0.965551853180
       -0.225493893027       -0.079138278961       -0.971012294292
       -0.198993638158       -0.078429400921       -0.976846814156
       -0.172325089574       -0.080600149930       -0.981731414795
       -0.142375230789       -0.079506210983       -0.986610710621
       -0.112959966063       -0.081639498472       -0.990238904953
       -0.080596633255       -0.080204442143       -0.993512868881
       -0.049470238388       -0.082226283848       -0.995392024517
       -0.015859233215       -0.080504968762       -0.996630191803
        0.015846492723       -0.082342974842       -0.996477782726
        0.049463331699       -0.080398865044       -0.995532333851
        0.080579139292       -0.081988483667       -0.993366181850
        0.112960159779       -0.079891130328       -0.990380167961
        0.142355695367       -0.081173613667       -0.986483812332
        0.172331377864       -0.078996442258       -0.981863737106
        0.198974549770       -0.079920127988       -0.976743400097