# OOMMF OVF 2.0
#
# Segment count: 000001
#
# Begin: Segment
# Begin: Header
#
# Title: SPIRIT Version 2.0.1 (Not Available)
#
# Desc: -
#
# valuedim: 3   ## field dimensionality
# valueunits: none none none
# valuelabels: spin_x spin_y spin_z
#
## Fundamental mesh measurement unit. Treated as a label:
# meshunit: nm
#
# xmin: 0
# ymin: 0
# zmin: 0
# xmax: 3.1
# ymax: 3.1
# zmax: 3.1
#
# meshtype: rectangular
# xbase: 0
# ybase: 0
# zbase: 0
# xstepsize: 0.1
# ystepsize: 0.1
# zstepsize: 0.1
# xnodes: 32
# ynodes: 32
# znodes: 32
#
# End: Header
#
# Begin: Data Text
       -0.350861370564        0.211728513241        0.912104666233
       -0.370297133923        0.215767383575        0.903444111347
       -0.402534157038        0.221704959869        0.888088881969
       -0.443123012781        0.228562563658        0.866767823696
       -0.489234775305        0.235603809357        0.839666485786
       -0.538417041302        0.242618441582        0.807001769543
       -0.589064359665        0.249019533396        0.768779516220
       -0.639488577843        0.254815876484        0.725351512432
       -0.688813984394        0.259425073862        0.676925182343
       -0.735823452473        0.262998610735        0.624006092548
       -0.780025780201        0.264905720949        0.566869616508
       -0.820570588112        0.265456467867        0.506155788898
       -0.857211768627        0.264018744230        0.442229390144
       -0.889208197594        0.261029928923        0.375708878040
       -0.916590273380        0.255957007408        0.307119786739
       -0.938900053501        0.249458551407        0.237130105495
       -0.956200599670        0.241096571088        0.166299208999
       -0.968046963215        0.231681838632        0.095209769905
       -0.974893033504        0.221002146602        0.024504479021
       -0.976672112942        0.210068717599       -0.045332610607
       -0.973459899426        0.198700457811       -0.113699369133
       -0.965522468090        0.188014030457       -0.180240616202
       -0.953246653080        0.177971825004       -0.244344159961
       -0.937009751797        0.169627264142       -0.305746108294
       -0.917235493660        0.162953928113       -0.363720089197
       -0.894428372383        0.158812865615       -0.417884081602
       -0.869812965393        0.157202169299       -0.467546850443
       -0.844175994396        0.158619210124       -0.512057960033
       -0.818923115730        0.162735804915       -0.550323009491
       -0.795773923397        0.169393211603       -0.581433594227
       -0.777009069920        0.177352204919       -0.603958547115
       -0.765612065792        0.184243604541       -0.616384625435
       -0.353956401348        0.211608856916        0.911023020744
       -0.373922735453        0.214850798249        0.902150213718
       -0.406765639782        0.220395520329        0.886566519737
       -0.448121666908        0.226899623871        0.864730179310
       -0.494465053082        0.234066128731        0.837021410465
       -0.544164836407        0.240940839052        0.803632438183
       -0.594682931900        0.247767791152        0.764832973480
       -0.645324289799        0.253458172083        0.720655798912
       -0.694173216820        0.258661031723        0.671760857105
       -0.741063237190        0.262081116438        0.618172764778
       -0.784523785114        0.264698535204        0.560765385628
       -0.824725389481        0.265056520700        0.499636739492
       -0.860463976860        0.264417350292        0.435675233603
       -0.891980528831        0.261204034090        0.369051605463
       -0.918436706066        0.257001340389        0.300665885210
       -0.940340757370        0.250292539597        0.230916813016
       -0.956767380238        0.242834180593        0.160458400846
       -0.968343913555        0.233225047588        0.089863426983
       -0.974563717842        0.223473086953        0.019628839567
       -0.975939750671        0.212295159698       -0.049569748342
       -0.972372114658        0.201826691628       -0.117494978011
       -0.964349508286        0.190947860479       -0.183363646269
       -0.951792716980        0.181690290570       -0.247134521604
       -0.935505747795        0.173149988055       -0.307931512594
       -0.915599703789        0.167121410370       -0.365781575441
       -0.893016993999        0.162819266319       -0.419640958309
       -0.868070840836        0.161598533392       -0.469317495823
       -0.842362105846        0.162737429142       -0.513713896275
       -0.816787540913        0.166899114847       -0.552276909351
       -0.793378293514        0.172965615988       -0.583582460880
       -0.774257481098        0.180206626654       -0.606622576714
       -0.762733519077        0.185782641172       -0.619461536407
       -0.360250294209        0.211264416575        0.908635675907
       -0.380532652140        0.214063674212        0.899663865566
       -0.414180278778        0.218857571483        0.883435726166
       -0.455932527781        0.225302428007        0.860995113850
       -0.503252565861        0.232054874301        0.832410156727
       -0.552841067314        0.239432111382        0.798162817955
       -0.603916704655        0.245937287807        0.758156180382
       -0.653886735439        0.252519130707        0.713195443153
       -0.702843666077        0.257375240326        0.663144707680
       -0.748635709286        0.261966884136        0.609053015709
       -0.791794180870        0.264151990414        0.550756037235
       -0.830544710159        0.265858590603        0.489415913820
       -0.865697562695        0.264699608088        0.424986958504
       -0.895728945732        0.263001829386        0.358533173800
       -0.921463191509        0.258212566376        0.290158689022
       -0.941910147667        0.253095775843        0.220835834742
       -0.957739472389        0.245041757822        0.150857254863
       -0.968122720718        0.237059280276        0.080850206316
       -0.973818480968        0.226684182882        0.011413702741
       -0.974492609501        0.217117354274       -0.057208172977
       -0.970562040806        0.206024944782       -0.124168656766
       -0.961901545525        0.196555748582       -0.189606115222
       -0.949431300163        0.186740323901       -0.252489864826
       -0.932610154152        0.179342389107       -0.313088268042
       -0.912723720074        0.172719940543       -0.370226055384
       -0.889654517174        0.169196948409       -0.424178242683
       -0.864718139172        0.167315408587       -0.473513394594
       -0.838403761387        0.168697819114       -0.518264353275
       -0.812598943710        0.171930223703       -0.556868612766
       -0.788585007191        0.177451848984       -0.588757038116
       -0.769214570522        0.183292761445       -0.612141251564
       -0.757407486439        0.187789753079       -0.625310122967
       -0.369212061167        0.210997328162        0.905019044876
       -0.389908045530        0.213320925832        0.895718991756
       -0.423774033785        0.217989578843        0.879111647606
       -0.466466754675        0.223764464259        0.855721354485
       -0.513664603233        0.230929329991        0.826299011707
       -0.564099490643        0.237743422389        0.790711283684
       -0.614471912384        0.245246291161        0.749853968620
       -0.664868950844        0.251256316900        0.703441679478
       -0.712494432926        0.257533073425        0.652702569962
       -0.758213520050        0.261436462402        0.597323894501
       -0.799622714520        0.265370488167        0.538696408272
       -0.837948322296        0.266258895397        0.476507544518
       -0.871134698391        0.267083138227        0.412120044231
       -0.900466084480        0.264423638582        0.345330238342
       -0.924420118332        0.261822491884        0.277377218008
       -0.944077610970        0.255641937256        0.208263233304
       -0.958275258541        0.249821603298        0.138858541846
       -0.968060851097        0.240748956800        0.069545246661
       -0.972602665424        0.232597365975        0.000694244518
       -0.972677111626        0.221879735589       -0.066929310560
       -0.967859327793        0.212818026543       -0.133480146527
       -0.959138274193        0.202278569341       -0.197854176164
       -0.945695996284        0.194114416838       -0.260545819998
       -0.928962767124        0.185654208064       -0.320218771696
       -0.908269762993        0.180245846510       -0.377480924129
       -0.885183870792        0.175605848432       -0.430777579546
       -0.859428167343        0.174329832196       -0.480525642633
       -0.832955777645        0.174452200532       -0.525027155876
       -0.806307256222        0.177501454949       -0.564233660698
       -0.782008826733        0.181519195437       -0.596233725548
       -0.762015759945        0.186468899250       -0.620119929314
       -0.750117957592        0.189907357097       -0.633442759514
       -0.380571663380        0.210822775960        0.900332570076
       -0.401259094477        0.213133230805        0.890840768814
       -0.435787022114        0.217193126678        0.873476624489
       -0.478226453066        0.223278343678        0.849367439747
       -0.526333153248        0.229713752866        0.818647444248
       -0.575987339020        0.237469166517        0.782203614712
       -0.627021849155        0.244182839990        0.739749014378
       -0.675977289677        0.251711308956        0.692595839500
       -0.723825931549        0.257066518068        0.640307009220
       -0.767605066299        0.262964934111        0.584534823895
       -0.808761954308        0.265774279833        0.524658918381
       -0.844863712788        0.269017785788        0.462466984987
       -0.877522528172        0.268534988165        0.397376060486
       -0.904641985893        0.268497765064        0.330938279629
       -0.927908658981        0.264424324036        0.262868821621
       -0.945607721806        0.261022359133        0.194315999746
       -0.959105372429        0.253613114357        0.125346973538
       -0.967310070992        0.247331947088        0.056600250304
       -0.971287965775        0.237537875772       -0.011380640790
       -0.970120072365        0.229446932673       -0.078623495996
       -0.965060293674        0.218764960766       -0.144076138735
       -0.955081045628        0.210458010435       -0.208326831460
       -0.941685259342        0.200715884566       -0.269942253828
       -0.923914968967        0.194009646773       -0.329833090305
       -0.903260648251        0.187018424273       -0.386209845543
       -0.879074335098        0.183455660939       -0.439976722002
       -0.853270113468        0.180558487773       -0.489191800356
       -0.825663864613        0.180951803923       -0.534314155579
       -0.798779726028        0.182297334075       -0.573342263699
       -0.773508429527        0.185812249780       -0.605923295021
       -0.753286182880        0.189301431179       -0.629863679409
       -0.740930438042        0.192213654518       -0.643413662910
       -0.393652439117        0.210987225175        0.894731402397
       -0.414630681276        0.212940394878        0.884751439095
       -0.448799312115        0.217253953218        0.866854488850
       -0.491986215115        0.222598180175        0.841596543789
       -0.539255976677        0.229870200157        0.810144782066
       -0.589700341225        0.236704885960        0.772151052952
       -0.639223575592        0.244906038046        0.728979706764
       -0.688643991947        0.251316457987        0.680130541325
       -0.734423875809        0.258766621351        0.627437591553
       -0.778223454952        0.263296574354        0.570140957832
       -0.816982150078        0.268702387810        0.510266184807
       -0.852737605572        0.270317047834        0.446992635727
       -0.882905006409        0.272802621126        0.382242977619
       -0.909508824348        0.270921051502        0.315331101418
       -0.930395245552        0.270044028759        0.247796460986
       -0.947517514229        0.264624714851        0.179369524121
       -0.959087789059        0.260533004999        0.110974572599
       -0.966719388962        0.252113938332        0.042867075652
       -0.969049155712        0.245511680841       -0.024740321562
       -0.967610180378        0.235285028815       -0.090980023146
       -0.961128175259        0.227472230792       -0.156377017498
       -0.951134324074        0.217065468431       -0.219499230385
       -0.936358451843        0.209659904242       -0.281389355659
       -0.918657124043        0.200892284513       -0.340229123831
       -0.896653711796        0.195550635457       -0.397166579962
       -0.872515082359        0.189968362451       -0.450142741203
       -0.845346570015        0.187895178795       -0.500074744225
       -0.817613124847        0.186305299401       -0.544727742672
       -0.789426505566        0.187632620335       -0.584418356419
       -0.763938665390        0.189396902919       -0.616853177547
       -0.742833316326        0.192419931293       -0.641220510006
       -0.730335414410        0.194508582354       -0.654787600040
       -0.408221513033        0.211229741573        0.888038277626
       -0.428922146559        0.213361874223        0.877821505070
       -0.463562786579        0.217064753175        0.858999907970
       -0.505926132202        0.223120912910        0.833211302757
       -0.553942561150        0.229441478848        0.800332844257
       -0.602831840515        0.237638995051        0.761675775051
       -0.652970135212        0.244596153498        0.716781616211
       -0.700238645077        0.253073394299        0.667551755905
       -0.746300995350        0.258973389864        0.613172113895
       -0.787523508072        0.266187399626        0.555872738361
       -0.826202392578        0.269718170166        0.494633257389
       -0.859223484993        0.274518549442        0.431716591120
       -0.889088749886        0.274839997292        0.366144210100
       -0.913055896759        0.276504069567        0.299809932709
       -0.933546781540        0.273230195045        0.232061788440
       -0.948319673538        0.271547824144        0.164230599999
       -0.959431290627        0.264879316092        0.096183918417
       -0.965119719505        0.260197013617        0.028482049704
       -0.967203974724        0.250974535942       -0.038311202079
       -0.964038312435        0.244217142463       -0.104498624802
       -0.957499563694        0.233797624707       -0.168814808130
       -0.945908486843        0.226373255253       -0.232274845243
       -0.931262373924        0.216436356306       -0.293041795492
       -0.911926209927        0.209948405623       -0.352524012327
       -0.890087068081        0.202172502875       -0.408489525318
       -0.864312708378        0.198031574488       -0.462285935879
       -0.837172031403        0.193645492196       -0.511505424976
       -0.807859718800        0.192609459162       -0.556957900524
       -0.779517292976        0.191874504089       -0.596230447292
       -0.752727210522        0.193502306938       -0.629236817360
       -0.731373786926        0.195132359862       -0.653440833092
       -0.718298017979        0.197016134858       -0.667260527611
       -0.423734724522        0.211853906512        0.880691766739
       -0.444625884295        0.213607147336        0.869898736477
       -0.478488624096        0.217811927199        0.850620090961
       -0.521446764469        0.222999498248        0.823625445366
       -0.567916512489        0.230487585068        0.790141701698
       -0.617488205433        0.237417042255        0.749877989292
       -0.665442407131        0.246308520436        0.704644560814
       -0.713182985783        0.253123939037        0.653665244579
       -0.756548523903        0.261672288179        0.599300384521
       -0.797966420650        0.266840368509        0.540451169014
       -0.833734452724        0.273652046919        0.479614943266
       -0.866672933102        0.276030242443        0.415564090014
       -0.893654346466        0.280120104551        0.350634545088
       -0.917386889458        0.279051721096        0.283734709024
       -0.935259640217        0.279869467020        0.216670677066
       -0.949779510498        0.275238305330        0.148873120546
       -0.958612024784        0.272763013840        0.081309944391
       -0.964130520821        0.265018939972        0.014168723486
       -0.964206576347        0.259831607342       -0.052521012723
       -0.961026370525        0.250001460314       -0.117767162621
       -0.952623009682        0.243197187781       -0.182421565056
       -0.941215097904        0.232781708241       -0.244766756892
       -0.924733638763        0.225805103779       -0.306253314018
       -0.905586957932        0.216440871358       -0.364621371031
       -0.881948173046        0.210801422596       -0.421559363604
       -0.856315672398        0.203972294927       -0.474422961473
       -0.827342748642        0.200783774257       -0.524608075619
       -0.798004865646        0.197348758578       -0.569389820099
       -0.767985761166        0.196964263916       -0.609396100044
       -0.740992188454        0.196752727032       -0.642014026642
       -0.718508958817        0.198277145624       -0.666626632214
       -0.705230414867        0.199403166771       -0.680338859558
       -0.440121889114        0.212440565228        0.872409462929
       -0.460486769676        0.214452028275        0.861339926720
       -0.494770288467        0.217984482646        0.841239452362
       -0.536309599876        0.224090248346        0.813726365566
       -0.583401620388        0.230369806290        0.778804957867
       -0.630808770657        0.239007309079        0.738213479519
       -0.679355263710        0.246213719249        0.691278696060
       -0.724349498749        0.255533665419        0.640336573124
       -0.768113315105        0.261932969093        0.584307968616
       -0.806459784508        0.270339846611        0.525888264179
       -0.842412412167        0.274563968182        0.463699430227
       -0.872290194035        0.280816674232        0.400387376547
       -0.899220705032        0.281910926104        0.334562331438
       -0.920102894306        0.285175412893        0.268468528986
       -0.937882125378        0.282714903355        0.201102152467
       -0.949814617634        0.282637685537        0.133910953999
       -0.958626210690        0.276722252369        0.066618762910
       -0.961873054504        0.273511111736       -0.000307231850
       -0.961984813213        0.264817208052       -0.066261380911
       -0.956757187843        0.259218513966       -0.131792023778
       -0.948566019535        0.248976513743       -0.195411592722
       -0.935118794441        0.242197975516       -0.258497297764
       -0.918973386288        0.231936246157       -0.318852126598
       -0.897773087025        0.225407451391       -0.378271669149
       -0.874391794205        0.216688707471       -0.434125036001
       -0.846680939198        0.211750373244       -0.488112896681
       -0.817808806896        0.205797836185       -0.537392377853
       -0.786518037319        0.203320562840       -0.583133995533
       -0.756432175636        0.200694337487       -0.622522234917
       -0.727828681469        0.200714826584       -0.655717194080
       -0.705116510391        0.200875058770       -0.680019259453
       -0.691079258919        0.201972961426       -0.693931281567
       -0.456844240427        0.213302135468        0.863558769226
       -0.477372229099        0.214894324541        0.851998329163
       -0.510511755943        0.219048947096        0.831509113312
       -0.552520930767        0.224088817835        0.802790045738
       -0.597581624985        0.231784611940        0.767566144466
       -0.645585894585        0.238789573312        0.725381433964
       -0.691400110722        0.248255863786        0.678479015827
       -0.736939966679        0.255409002304        0.625859856606
       -0.777552545071        0.264894872904        0.570288240910
       -0.816301286221        0.270624846220        0.510368049145
       -0.849008977413        0.278685212135        0.448985069990
       -0.879091799259        0.281783491373        0.384531319141
       -0.902950465679        0.287318885326        0.319643586874
       -0.923935592175        0.287056535482        0.252930402756
       -0.938888847828        0.289408236742        0.186335951090
       -0.950919091702        0.285561144352        0.119098119438
       -0.957219779491        0.284581899643        0.052188437432
       -0.960606873035        0.277488291264       -0.014259318821
       -0.958461225033        0.273563563824       -0.080368898809
       -0.953507363796        0.264117419720       -0.145018786192
       -0.943117439747        0.258161216974       -0.209334716201
       -0.930053055286        0.247679948807       -0.271313190460
       -0.911685466766        0.240965604782       -0.332772791386
       -0.890967965126        0.230993017554       -0.391072392464
       -0.865197122097        0.224864959717       -0.448145627975
       -0.837798357010        0.216805934906       -0.501093029976
       -0.806652843952        0.212470620871       -0.551510632038
       -0.775439679623        0.207355991006       -0.596397399902
       -0.743336200714        0.205460190773       -0.636568605900
       -0.714613854885        0.203608050942       -0.669223189354
       -0.690569579601        0.203937768936       -0.693924963474
       -0.676382482052        0.204315721989       -0.707700014114
       -0.474110960960        0.213977932930        0.854042112827
       -0.493933230639        0.215872019529        0.842254221439
       -0.527349650860        0.219194233418        0.820881724358
       -0.567573368549        0.225299522281        0.791876614094
       -0.613167285919        0.231503009796        0.755260586739
       -0.658553242683        0.240444004536        0.713083803654
       -0.704959511757        0.247798383236        0.664548814297
       -0.747355163097        0.257785439491        0.612394332886
       -0.788503289223        0.264576822519        0.555232048035
       -0.823904991150        0.273990660906        0.496176600456
       -0.856995463371        0.278805941343        0.433445125818
       -0.883817315102        0.286320716143        0.370052993298
       -0.907960236073        0.288160055876        0.304261028767
       -0.925945460796        0.292852431536        0.238516867161
       -0.941147446632        0.291185468435        0.171560943127
       -0.950462937355        0.292566150427        0.104916766286
       -0.957044363022        0.287396490574        0.038197133690
       -0.957915365696        0.285494863987       -0.028215132654
       -0.956168293953        0.277372270823       -0.093658968806
       -0.948826611042        0.272780448198       -0.158878147602
       -0.938912987709        0.262742787600       -0.222194552422
       -0.923467576504        0.256482034922       -0.285252898932
       -0.905572652817        0.245913416147       -0.345535308123
       -0.882368922234        0.239277601242       -0.405179738998
       -0.857079684734        0.229663223028       -0.461106359959
       -0.827173233032        0.223933786154       -0.515378594398
       -0.796299099922        0.216584414244       -0.564765155315
       -0.762737333775        0.212809473276       -0.610675513744
       -0.730668127537        0.208583652973       -0.650063037872
       -0.700084686279        0.207276746631       -0.683292150497
       -0.675863146782        0.206257253885       -0.707566440105
       -0.660827219486        0.206740885973       -0.721529424191
       -0.491306751966        0.214774981141        0.844005584717
       -0.511266052723        0.216190263629        0.831808686256
       -0.543260276318        0.220187678933        0.810152828693
       -0.583881974220        0.225021183491        0.780025243759
       -0.627073645592        0.232771545649        0.743364810944
       -0.673031091690        0.239738032222        0.699687123299
       -0.716365039349        0.249575927854        0.651566922665
       -0.759357094765        0.256928533316        0.597802639008
       -0.797124147415        0.267138898373        0.541527926922
       -0.833074271679        0.273311674595        0.481004148722
       -0.862789273262        0.282398819923        0.419443756342
       -0.890046119690        0.286132037640        0.354903191328
       -0.911029160023        0.292928785086        0.290269255638
       -0.929397583008        0.293433338404        0.223860770464
       -0.941714107990        0.297159731388        0.157736748457
       -0.951426982880        0.294106751680        0.090978011489
       -0.955330431461        0.294457614422        0.024531399831
       -0.956709265709        0.288059383631       -0.041471626610
       -0.952414393425        0.285267323256       -0.107293628156
       -0.945585906506        0.276238918304       -0.171675443649
       -0.933156192303        0.271028518677       -0.235971033573
       -0.918286383152        0.260557532310       -0.297916382551
       -0.897872030735        0.254049330950       -0.359607130289
       -0.875173687935        0.243537947536       -0.418011963367
       -0.847214937210        0.236982509494       -0.475423067808
       -0.817739009857        0.227867111564       -0.528521001339
       -0.784252762794        0.222533389926       -0.579173564911
       -0.750895440578        0.216006919742       -0.624081254005
       -0.716533899307        0.212843969464       -0.664273142815
       -0.685913085938        0.209657311440       -0.696821630001
       -0.660179018974        0.209008455276       -0.721441149712
       -0.644973516464        0.208769857883       -0.735147297382
       -0.508864223957        0.215219959617        0.833473861217
       -0.527978360653        0.216950073838        0.821106970310
       -0.560167074203        0.219972118735        0.798622906208
       -0.598739087582        0.225932002068        0.768416404724
       -0.642396092415        0.231917083263        0.730440974236
       -0.685456871986        0.240947633982        0.687092900276
       -0.729404389858        0.248296350241        0.637440145016
       -0.769044518471        0.258699089289        0.584521770477
       -0.807448446751        0.265746057034        0.526721656322
       -0.839909493923        0.275906145573        0.467401355505
       -0.870242834091        0.281235069036        0.404543608427
       -0.894177258015        0.289780646563        0.341310203075
       -0.915721297264        0.292328447104        0.275762557983
       -0.931024491787        0.298243314028        0.210417896509
       -0.943855047226        0.297377586365        0.143878102303
       -0.950735509396        0.300039023161        0.077663302422
       -0.955209195614        0.295651704073        0.011343209073
       -0.953925549984        0.294951677322       -0.054787773639
       -0.950206756592        0.287429779768       -0.119992792606
       -0.940820991993        0.283762693405       -0.185189276934
       -0.929030001163        0.274014294147       -0.248496413231
       -0.911521255970        0.268233150244       -0.311785519123
       -0.891678094864        0.257497549057       -0.372241854668
       -0.866204321384        0.250755339861       -0.432225406170
       -0.838809490204        0.240457296371       -0.488372355700
       -0.806494116783        0.234053343534       -0.542926549911
       -0.773381352425        0.225577577949       -0.592398822308
       -0.737392961979        0.220725059509       -0.638367652893
       -0.703184247017        0.215216144919       -0.677645206451
       -0.670497357845        0.212818250060       -0.710722506046
       -0.644654095173        0.210842698812       -0.734811663628
       -0.628525435925        0.210801482201       -0.748661637306
       -0.526178002357        0.215671643615        0.822562694550
       -0.545312404633        0.216826215386        0.809721052647
       -0.575952053070        0.220556452870        0.787167489529
       -0.614819824696        0.225036412477        0.755884766579
       -0.655876576900        0.232625037432        0.718140184879
       -0.699472367764        0.239374980330        0.673380672932
       -0.740186870098        0.249325737357        0.624478042126
       -0.780491173267        0.256717234850        0.570050537586
       -0.815410375595        0.267375528812        0.513454914093
       -0.848568141460        0.273864090443        0.452728927135
       -0.875454485416        0.283728301525        0.391272455454
       -0.900080740452        0.288047105074        0.326926082373
       -0.918415188789        0.295883446932        0.262653619051
       -0.934368073940        0.297148138285        0.196622207761
       -0.944260597229        0.302059173584        0.130909651518
       -0.951802909374        0.299833625555        0.064526624978
       -0.953487277031        0.301370531321       -0.001633598236
       -0.952863812447        0.295724093914       -0.067411959171
       -0.946456849575        0.293949931860       -0.133182615042
       -0.937714219093        0.285453885794       -0.197563499212
       -0.923236787319        0.280947297812       -0.262076795101
       -0.906416177750        0.270643144846       -0.324229717255
       -0.883692443371        0.264319747686       -0.386256217957