# OOMMF OVF 2.0
#
# Segment count: 000001
#
# Begin: Segment
# Begin: Header
#
# Title: SPIRIT Version 2.0.1 (Not Available)
#
# Desc: -
#
# valuedim: 3   ## field dimensionality
# valueunits: none none none
# valuelabels: spin_x spin_y spin_z
#
## Fundamental mesh measurement unit. Treated as a label:
# meshunit: nm
#
# xmin: 0
# ymin: 0
# zmin: 0
# xmax: 25.5
# ymax: 6.3
# zmax: 0
#
# meshtype: rectangular
# xbase: 0
# ybase: 0
# zbase: 0
# xstepsize: 0.1
# ystepsize: 0.1
# zstepsize: 0.1
# xnodes: 256
# ynodes: 64
# znodes: 1
#
# End: Header
#
# Begin: Data Text
        0.694565653801        0.719644069672        0.000000000000
        0.715756893158        0.700508892536        0.000000000000
        0.738254845142        0.674817025661        0.000000000000
        0.760238885880        0.648139059544        0.000000000000
        0.781268775463        0.622447490692        0.000000000000
        0.800434648991        0.597840785980        0.000000000000
        0.817898154259        0.574541628361        0.000000000000
        0.832207202911        0.551301300526        0.000000000000
        0.847208738327        0.530292332172        0.000000000000
        0.861099243164        0.510022521019        0.000000000000
        0.871926307678        0.488683998585        0.000000000000
        0.883180320263        0.467947810888        0.000000000000
        0.894996702671        0.447411626577        0.000000000000
        0.905262827873        0.425543040037        0.000000000000
        0.915195345879        0.402672290802        0.000000000000
        0.925899684429        0.378992706537        0.000000000000
        0.935623407364        0.353604644537        0.000000000000
        0.944336175919        0.326591908932        0.000000000000
        0.954038202763        0.298850744963        0.000000000000
        0.963361084461        0.270191371441        0.000000000000
        0.970975041389        0.240686357021        0.000000000000
        0.977459311485        0.211087241769        0.000000000000
        0.982942104340        0.182068109512        0.000000000000
        0.987790048122        0.154256150126        0.000000000000
        0.992007374763        0.128196194768        0.000000000000
        0.995469689369        0.104291498661        0.000000000000
        0.997099637985        0.082742840052        0.000000000000
        0.998332619667        0.063830129802        0.000000000000
        1.000010251999        0.047615554184        0.000000000000
        0.999863624573        0.033878546208        0.000000000000
        0.999306738377        0.022501992062        0.000000000000
        0.999612092972        0.013291427866        0.000000000000
        0.999348282814        0.005954804365       -0.000000000000
        0.998538494110        0.000229447600       -0.000000000000
        0.998914122581       -0.004124165978       -0.000000000000
        0.999241530895       -0.007332751062       -0.000000000000
        0.999527513981       -0.009600909427       -0.000000000000
        0.999780058861       -0.011113028973       -0.000000000000
        0.999922335148       -0.012026941404       -0.000000000000
        1.000000000000       -0.012473382056       -0.000000000000
        1.000000000000       -0.012559845112       -0.000000000000
        1.000000000000       -0.012376671657       -0.000000000000
        1.000000000000       -0.011996778660       -0.000000000000
        1.000000000000       -0.011480222456       -0.000000000000
        1.000000000000       -0.010876463726       -0.000000000000
        1.000000000000       -0.010220980272       -0.000000000000
        1.000000000000       -0.009540001862       -0.000000000000
        1.000000000000       -0.008851648308       -0.000000000000
        1.000000000000       -0.008168149740       -0.000000000000
        1.000000000000       -0.007499422878       -0.000000000000
        1.000000000000       -0.006851265673       -0.000000000000
        1.000000000000       -0.006229537539       -0.000000000000
        1.000000000000       -0.005639862735       -0.000000000000
        1.000000000000       -0.005084366538       -0.000000000000
        1.000000000000       -0.004564670380       -0.000000000000
        1.000000000000       -0.004082259256       -0.000000000000
        1.000000000000       -0.003637198359       -0.000000000000
        1.000000000000       -0.003228697460       -0.000000000000
        1.000000000000       -0.002855669009       -0.000000000000
        0.999987721443       -0.002516402164       -0.000000000000
        0.999936461449       -0.002210165374       -0.000000000000
        0.999894678593       -0.001935312990       -0.000000000000
        0.999857842922       -0.001690152800       -0.000000000000
        0.999853730202       -0.001472287811       -0.000000000000
        0.999847471714       -0.001279201475       -0.000000000000
        0.999830245972       -0.001108438475       -0.000000000000
        0.999813675880       -0.000958245131       -0.000000000000
        0.999784529209       -0.000826063799       -0.000000000000
        0.999738693237       -0.000710130087       -0.000000000000
        0.999713420868       -0.000608894799       -0.000000000000
        0.999701201916       -0.000521342910       -0.000000000000
        0.999683082104       -0.000445721467       -0.000000000000
        0.999673664570       -0.000381382531       -0.000000000000
        0.999653697014       -0.000327188929       -0.000000000000
        0.999625504017       -0.000282590132       -0.000000000000
        0.999611556530       -0.000246085925       -0.000000000000
        0.999592185020       -0.000216981571       -0.000000000000
        0.999581456184       -0.000194014632       -0.000000000000
        0.999578893185       -0.000177009439       -0.000000000000
        0.999579548836       -0.000164900703       -0.000000000000
        0.999586880207       -0.000157319708       -0.000000000000
        0.999598085880       -0.000153018816       -0.000000000000
        0.999608695507       -0.000151973465       -0.000000000000
        0.999634027481       -0.000153302841       -0.000000000000
        0.999659657478       -0.000157059578       -0.000000000000
        0.999674022198       -0.000162458440       -0.000000000000
        0.999685585499       -0.000170020037       -0.000000000000
        0.999689280987       -0.000179031005       -0.000000000000
        0.999700963497       -0.000189793456       -0.000000000000
        0.999711096287       -0.000201431962       -0.000000000000
        0.999719858170       -0.000214404703       -0.000000000000
        0.999727785587       -0.000228056582       -0.000000000000
        0.999732255936       -0.000243177565       -0.000000000000
        0.999740898609       -0.000259209221       -0.000000000000
        0.999753415585       -0.000276669889       -0.000000000000
        0.999768316746       -0.000294538302       -0.000000000000
        0.999783098698       -0.000313244032       -0.000000000000
        0.999795079231       -0.000331854942       -0.000000000000
        0.999807596207       -0.000351032795       -0.000000000000
        0.999818086624       -0.000369998452       -0.000000000000
        0.999828934669       -0.000389520952       -0.000000000000
        0.999844431877       -0.000408819586       -0.000000000000
        0.999859392643       -0.000428766536       -0.000000000000
        0.999873876572       -0.000448597886       -0.000000000000
        0.999889016151       -0.000469167338       -0.000000000000
        0.999904990196       -0.000489546976       -0.000000000000
        0.999918639660       -0.000510544633       -0.000000000000
        0.999932706356       -0.000531203055       -0.000000000000
        0.999946475029       -0.000552348793       -0.000000000000
        0.999957561493       -0.000573057740       -0.000000000000
        0.999967038631       -0.000594344107       -0.000000000000
        0.999975860119       -0.000615347060       -0.000000000000
        0.999984443188       -0.000637092278       -0.000000000000
        0.999991655350       -0.000658675679       -0.000000000000
        0.999998807907       -0.000681128702       -0.000000000000
        1.000000000000       -0.000703544531       -0.000000000000
        1.000000000000       -0.000726972532       -0.000000000000
        1.000000000000       -0.000750421721       -0.000000000000
        1.000000000000       -0.000774906715       -0.000000000000
        1.000000000000       -0.000799392117       -0.000000000000
        1.000000000000       -0.000824909366       -0.000000000000
        1.000000000000       -0.000850456709       -0.000000000000
        1.000000000000       -0.000877090613       -0.000000000000
        1.000000000000       -0.000903762178       -0.000000000000
        1.000000000000       -0.000931518734       -0.000000000000
        1.000000000000       -0.000959310157       -0.000000000000
        1.000000000000       -0.000988197397       -0.000000000000
        1.000000000000       -0.001017145813       -0.000000000000
        1.000000000000       -0.001047207625       -0.000000000000
        1.000000000000       -0.001077371417       -0.000000000000
        1.000000000000       -0.001108730445       -0.000000000000
        1.000000000000       -0.001140283886       -0.000000000000
        1.000000000000       -0.001173163066       -0.000000000000
        1.000000000000       -0.001206380199       -0.000000000000
        1.000000000000       -0.001241041464       -0.000000000000
        1.000000000000       -0.001276140450       -0.000000000000
        1.000000000000       -0.001312747132       -0.000000000000
        1.000000000000       -0.001349860802       -0.000000000000
        1.000000000000       -0.001388546661       -0.000000000000
        1.000000000000       -0.001427826239       -0.000000000000
        1.000000000000       -0.001468755770       -0.000000000000
        1.000000000000       -0.001510366797       -0.000000000000
        1.000000000000       -0.001553705893       -0.000000000000
        1.000000000000       -0.001597850001       -0.000000000000
        1.000000000000       -0.001643815311       -0.000000000000
        1.000000000000       -0.001690683188       -0.000000000000
        1.000000000000       -0.001739460393       -0.000000000000
        1.000000000000       -0.001789247501       -0.000000000000
        1.000000000000       -0.001841030666       -0.000000000000
        1.000000000000       -0.001893959241       -0.000000000000
        1.000000000000       -0.001949034748       -0.000000000000
        1.000000000000       -0.002005487680       -0.000000000000
        1.000000000000       -0.002064333763       -0.000000000000
        1.000000000000       -0.002124852268       -0.000000000000
        1.000000000000       -0.002188030863       -0.000000000000
        1.000000000000       -0.002253152663       -0.000000000000
        1.000000000000       -0.002321166219       -0.000000000000
        1.000000000000       -0.002391387941       -0.000000000000
        1.000000000000       -0.002464720048       -0.000000000000
        1.000000000000       -0.002540470567       -0.000000000000
        1.000000000000       -0.002619520994       -0.000000000000
        1.000000000000       -0.002701332793       -0.000000000000
        1.000000000000       -0.002786885248       -0.000000000000
        1.000000000000       -0.002875777427       -0.000000000000
        1.000000000000       -0.002969037509       -0.000000000000
        1.000000000000       -0.003066302743       -0.000000000000
        1.000000000000       -0.003168590134       -0.000000000000
        1.000000000000       -0.003275675699       -0.000000000000
        1.000000000000       -0.003388614627       -0.000000000000
        1.000000000000       -0.003507212270       -0.000000000000
        1.000000000000       -0.003632570850       -0.000000000000
        1.000000000000       -0.003764699679       -0.000000000000
        1.000000000000       -0.003904735669       -0.000000000000
        1.000000000000       -0.004052724689       -0.000000000000
        1.000000000000       -0.004209858831       -0.000000000000
        1.000000000000       -0.004376549274       -0.000000000000
        1.000000000000       -0.004554255400       -0.000000000000
        1.000000000000       -0.004743425176       -0.000000000000
        1.000000000000       -0.004945472814       -0.000000000000
        1.000000000000       -0.005161080044       -0.000000000000
        1.000000000000       -0.005391921848       -0.000000000000
        1.000000000000       -0.005638950039       -0.000000000000
        1.000000000000       -0.005904062651       -0.000000000000
        1.000000000000       -0.006188503932       -0.000000000000
        1.000000000000       -0.006494309753       -0.000000000000
        1.000000000000       -0.006822959054       -0.000000000000
        1.000000000000       -0.007176695857       -0.000000000000
        1.000000000000       -0.007557106670       -0.000000000000
        1.000000000000       -0.007966664620       -0.000000000000
        1.000000000000       -0.008407494053       -0.000000000000
        1.000000000000       -0.008882216178       -0.000000000000
        1.000000000000       -0.009392860346       -0.000000000000
        1.000000000000       -0.009942104109       -0.000000000000
        1.000000000000       -0.010532072745       -0.000000000000
        1.000000000000       -0.011165176518       -0.000000000000
        1.000000000000       -0.011843420565       -0.000000000000
        1.000000000000       -0.012569212355       -0.000000000000
        1.000000000000       -0.013344323263       -0.000000000000
        1.000000000000       -0.014170225710       -0.000000000000
        1.000000000000       -0.015047113411       -0.000000000000
        0.999999940395       -0.015974987298       -0.000000000000
        1.000000000000       -0.016953699291       -0.000000000000
        0.999999880791       -0.017983391881       -0.000000000000
        0.999999940395       -0.019063422456       -0.000000000000
        0.999999940395       -0.020192258060       -0.000000000000
        1.000000000000       -0.021367516369       -0.000000000000
        0.999999940395       -0.022586369887       -0.000000000000
        0.999999940395       -0.023844806477       -0.000000000000
        0.999999940395       -0.025137681514       -0.000000000000
        1.000000000000       -0.026458762586       -0.000000000000
        0.999912500381       -0.027798861265       -0.000000000000
        0.999700069427       -0.029151363298       -0.000000000000
        0.999585390091       -0.030515341088       -0.000000000000
        0.999497056007       -0.031877100468       -0.000000000000
        0.999422848225       -0.033223118633       -0.000000000000
        0.999358415604       -0.034538593143       -0.000000000000
        0.999301016331       -0.035808160901       -0.000000000000
        0.999249696732       -0.037017043680       -0.000000000000
        0.999203383923       -0.038150694221       -0.000000000000
        0.999161839485       -0.039191745222       -0.000000000000
        0.999124586582       -0.040120132267       -0.000000000000
        0.999092578888       -0.040915492922       -0.000000000000
        0.999066114426       -0.041558418423       -0.000000000000
        0.999045014381       -0.042028550059       -0.000000000000
        0.999029994011       -0.042304020375       -0.000000000000
        0.999027132988       -0.042364358902       -0.000000000000
        0.999046862125       -0.042189396918       -0.000000000000
        0.999073743820       -0.041756983846       -0.000000000000
        0.999110221863       -0.041045200080       -0.000000000000
        0.999156951904       -0.040031142533       -0.000000000000
        0.999216079712       -0.038692388684       -0.000000000000
        0.999286711216       -0.037005390972       -0.000000000000
        0.999368906021       -0.034939453006       -0.000000000000
        0.999462783337       -0.032458584756       -0.000000000000
        0.999569833279       -0.029523056000       -0.000000000000
        0.999690294266       -0.026084415615       -0.000000000000
        0.999813735485       -0.022080918774       -0.000000000000
        0.999820888042       -0.017435288057       -0.000000000000
        0.999679088593       -0.012056424282       -0.000000000000
        0.999571382999       -0.005843247287       -0.000000000000
        0.999507248402        0.001318196882       -0.000000000000
        0.999660193920        0.009566556662        0.000000000000
        0.999626815319        0.019075009972        0.000000000000
        0.999476194382        0.030058464035        0.000000000000
        0.998618721962        0.042737167329        0.000000000000
        0.998646914959        0.057462498546        0.000000000000
        0.997267901897        0.074453420937        0.000000000000
        0.995512902737        0.094109654427        0.000000000000
        0.992840468884        0.116712726653        0.000000000000
        0.989425837994        0.142535254359        0.000000000000
        0.984440207481        0.171531662345        0.000000000000
        0.980563700199        0.203783065081        0.000000000000
        0.971922099590        0.236716732383        0.000000000000
        0.962674200535        0.268392503262        0.000000000000
        0.955701470375        0.294783473015        0.000000000000
        0.950772345066        0.309495598078        0.000000000000
        0.675866365433        0.733891665936        0.000000000000
        0.699016809464        0.715835213661        0.000000000000
        0.723233997822        0.689731657505        0.000000000000
        0.747789025307        0.663747668266        0.000000000000
        0.768916547298        0.636989653111        0.000000000000
        0.788654863834        0.612012267113        0.000000000000
        0.806361913681        0.588207840919        0.000000000000
        0.823545336723        0.566367447376        0.000000000000
        0.836261212826        0.543292582035        0.000000000000
        0.851768732071        0.523493587971        0.000000000000
        0.864112794399        0.502425074577        0.000000000000
        0.874850094318        0.480786591768        0.000000000000
        0.887387692928        0.459924966097        0.000000000000
        0.898329079151        0.437615483999        0.000000000000
        0.909992039204        0.414698004723        0.000000000000
        0.920810997486        0.390156865120        0.000000000000
        0.930660188198        0.363819122314        0.000000000000
        0.941083431244        0.336350828409        0.000000000000
        0.951152324677        0.307617038488        0.000000000000
        0.960272848606        0.277770996094        0.000000000000
        0.968562245369        0.247315764427        0.000000000000
        0.975075125694        0.216580212116        0.000000000000
        0.982658863068        0.186889171600        0.000000000000
        0.987227022648        0.157997444272        0.000000000000
        0.992227196693        0.131121695042        0.000000000000
        0.994218349457        0.106234818697        0.000000000000
        0.996298789978        0.084024049342        0.000000000000
        0.998241245747        0.064569443464        0.000000000000
        0.998558998108        0.047796212137        0.000000000000
        0.999012708664        0.033690918237        0.000000000000
        0.999719858170        0.022032685578        0.000000000000
        1.000029087067        0.012577555142        0.000000000000
        1.001443147659        0.005088134669       -0.000000000000
        1.001356482506       -0.000744855788       -0.000000000000
        1.001017570496       -0.005170592107       -0.000000000000
        1.000541210175       -0.008411186747       -0.000000000000
        1.000059008598       -0.010684047826       -0.000000000000
        1.000000000000       -0.012183203362       -0.000000000000
        1.000000000000       -0.013066065498       -0.000000000000
        0.999969422817       -0.013468635269       -0.000000000000
        0.999955832958       -0.013503531925       -0.000000000000
        0.999864459038       -0.013263010420       -0.000000000000
        0.999750435352       -0.012824067846       -0.000000000000
        0.999676167965       -0.012248962186       -0.000000000000
        0.999662518501       -0.011588212103       -0.000000000000
        0.999559402466       -0.010877281427       -0.000000000000
        0.999579966068       -0.010145124048       -0.000000000000
        0.999514639378       -0.009407959878       -0.000000000000
        0.999549686909       -0.008679977618       -0.000000000000
        0.999629616737       -0.007969128899       -0.000000000000
        0.999643206596       -0.007280548569       -0.000000000000
        0.999754786491       -0.006621823646       -0.000000000000
        0.999859094620       -0.005996420979       -0.000000000000
        0.999898314476       -0.005407269578       -0.000000000000
        0.999945282936       -0.004856527783       -0.000000000000
        1.000000000000       -0.004345511086       -0.000000000000
        1.000000000000       -0.003873733571       -0.000000000000
        1.000000000000       -0.003441826208       -0.000000000000
        1.000000000000       -0.003047517268       -0.000000000000
        1.000000000000       -0.002689253306       -0.000000000000
        1.000000000000       -0.002365993569       -0.000000000000
        1.000000000000       -0.002076362027       -0.000000000000
        1.000000000000       -0.001817619661       -0.000000000000
        1.000000000000       -0.001587999403       -0.000000000000
        1.000000000000       -0.001383877476       -0.000000000000
        1.000000000000       -0.001203759923       -0.000000000000
        1.000000000000       -0.001044840203       -0.000000000000
        1.000000000000       -0.000905291992       -0.000000000000
        1.000000000000       -0.000782110495       -0.000000000000
        1.000000000000       -0.000675114337       -0.000000000000
        1.000000000000       -0.000582019158       -0.000000000000
        1.000000000000       -0.000502093055       -0.000000000000
        1.000000000000       -0.000433269248       -0.000000000000
        1.000000000000       -0.000375788950       -0.000000000000
        1.000000000000       -0.000327701186       -0.000000000000
        1.000000000000       -0.000288875395       -0.000000000000
        1.000000000000       -0.000256966392       -0.000000000000
        1.000000000000       -0.000232307968       -0.000000000000
        1.000000000000       -0.000213061619       -0.000000000000
        1.000000000000       -0.000199914997       -0.000000000000
        1.000000000000       -0.000190585430       -0.000000000000
        1.000000000000       -0.000185615791       -0.000000000000
        1.000000000000       -0.000183085547       -0.000000000000
        1.000000000000       -0.000184067147       -0.000000000000
        1.000000000000       -0.000186435354       -0.000000000000
        1.000000000000       -0.000191553539       -0.000000000000
        1.000000000000       -0.000197894246       -0.000000000000
        1.000000000000       -0.000206989251       -0.000000000000
        1.000000000000       -0.000216756103       -0.000000000000
        1.000000000000       -0.000228629084       -0.000000000000
        1.000000000000       -0.000240625217       -0.000000000000
        1.000000000000       -0.000254614541       -0.000000000000
        1.000000000000       -0.000268869364       -0.000000000000
        1.000000000000       -0.000285511487       -0.000000000000
        1.000000000000       -0.000302311586       -0.000000000000
        1.000000000000       -0.000320959574       -0.000000000000
        1.000000000000       -0.000338995800       -0.000000000000
        1.000000000000       -0.000358414953       -0.000000000000
        1.000000000000       -0.000376900192       -0.000000000000
        1.000000000000       -0.000396748219       -0.000000000000
        1.000000000000       -0.000415631454       -0.000000000000
        1.000000000000       -0.000435907365       -0.000000000000
        1.000000000000       -0.000455194880       -0.000000000000
        1.000000000000       -0.000476043322       -0.000000000000
        1.000000000000       -0.000495964137       -0.000000000000
        1.000000000000       -0.000517416396       -0.000000000000
        1.000000000000       -0.000537736865       -0.000000000000
        1.000000000000       -0.000559505657       -0.000000000000
        1.000000000000       -0.000579944637       -0.000000000000
        1.000000000000       -0.000601774896       -0.000000000000
        1.000000000000       -0.000622350082       -0.000000000000
        1.000000000000       -0.000644549029       -0.000000000000
        1.000000000000       -0.000665606291       -0.000000000000
        1.000000000000       -0.000688436034       -0.000000000000
        1.000000000000       -0.000710193650       -0.000000000000
        1.000000000000       -0.000733906229       -0.000000000000
        1.000000000000       -0.000756704132       -0.000000000000
        1.000000000000       -0.000781558803       -0.000000000000
        1.000000000000       -0.000805458520       -0.000000000000
        1.000000000000       -0.000831397949       -0.000000000000
        1.000000000000       -0.000856334460       -0.000000000000
        1.000000000000       -0.000883383211       -0.000000000000
        1.000000000000       -0.000909472641       -0.000000000000
        1.000000000000       -0.000937705801       -0.000000000000
        1.000000000000       -0.000964959909       -0.000000000000
        1.000000000000       -0.000994361239       -0.000000000000
        1.000000000000       -0.001022799523       -0.000000000000
        1.000000000000       -0.001053403597       -0.000000000000
        1.000000000000       -0.001083057723       -0.000000000000
        1.000000000000       -0.001114925952       -0.000000000000
        1.000000000000       -0.001145925489       -0.000000000000
        1.000000000000       -0.001179223764       -0.000000000000
        1.000000000000       -0.001211790950       -0.000000000000
        1.000000000000       -0.001246806118       -0.000000000000
        1.000000000000       -0.001281216508       -0.000000000000
        1.000000000000       -0.001318158465       -0.000000000000
        1.000000000000       -0.001354588778       -0.000000000000
        1.000000000000       -0.001393604092       -0.000000000000
        1.000000000000       -0.001432188787       -0.000000000000
        1.000000000000       -0.001473422628       -0.000000000000
        1.000000000000       -0.001514349948       -0.000000000000
        1.000000000000       -0.001557973912       -0.000000000000
        1.000000000000       -0.001601397409       -0.000000000000
        1.000000000000       -0.001647602418       -0.000000000000
        1.000000000000       -0.001693743863       -0.000000000000
        1.000000000000       -0.001742726541       -0.000000000000
        1.000000000000       -0.001791776856       -0.000000000000
        1.000000000000       -0.001843739650       -0.000000000000
        1.000000000000       -0.001895908383       -0.000000000000
        1.000000000000       -0.001951075741       -0.000000000000
        1.000000000000       -0.002006643219       -0.000000000000
        1.000000000000       -0.002065393841       -0.000000000000
        1.000000000000       -0.002124873223       -0.000000000000
        1.000000000000       -0.002187793842       -0.000000000000
        1.000000000000       -0.002251762198       -0.000000000000
        1.000000000000       -0.002319390187       -0.000000000000
        1.000000000000       -0.002388366731       -0.000000000000
        1.000000000000       -0.002461215947       -0.000000000000
        1.000000000000       -0.002535699867       -0.000000000000
        1.000000000000       -0.002614191500       -0.000000000000
        1.000000000000       -0.002694559982       -0.000000000000
        1.000000000000       -0.002779230243       -0.000000000000
        1.000000000000       -0.002866306575       -0.000000000000
        1.000000000000       -0.002958197845       -0.000000000000
        1.000000000000       -0.003053219523       -0.000000000000
        1.000000000000       -0.003153670114       -0.000000000000
        1.000000000000       -0.003257966600       -0.000000000000
        1.000000000000       -0.003368470585       -0.000000000000
        1.000000000000       -0.003483795095       -0.000000000000
        1.000000000000       -0.003606135957       -0.000000000000
        1.000000000000       -0.003734261729       -0.000000000000
        1.000000000000       -0.003870501416       -0.000000000000
        1.000000000000       -0.004013818689       -0.000000000000
        1.000000000000       -0.004166425671       -0.000000000000
        1.000000000000       -0.004327433184       -0.000000000000
        1.000000000000       -0.004499300383       -0.000000000000
        1.000000000000       -0.004681610968       -0.000000000000
        1.000000000000       -0.004876683000       -0.000000000000
        1.000000000000       -0.005084132310       -0.000000000000
        1.000000000000       -0.005306444131       -0.000000000000
        1.000000000000       -0.005543678068       -0.000000000000
        1.000000000000       -0.005798464641       -0.000000000000
        1.000000000000       -0.006071198732       -0.000000000000