# OOMMF OVF 2.0
#
# Segment count: 000001
#
# Begin: Segment
# Begin: Header
#
# Title: SPIRIT Version 2.0.1 (Not Available)
#
# Desc: -
#
# valuedim: 3   ## field dimensionality
# valueunits: none none none
# valuelabels: spin_x spin_y spin_z
#
## Fundamental mesh measurement unit. Treated as a label:
# meshunit: nm
#
# xmin: 0
# ymin: 0
# zmin: 0
# xmax: 25.5
# ymax: 6.3
# zmax: 0
#
# meshtype: rectangular
# xbase: 0
# ybase: 0
# zbase: 0
# xstepsize: 0.1
# ystepsize: 0.1
# zstepsize: 0.1
# xnodes: 256
# ynodes: 64
# znodes: 1
#
# End: Header
#
# Begin: Data Text
        0.763379633427        0.645952284336       -0.000000000000
        0.773473560810        0.633823871613       -0.000000000000
        0.786131203175        0.618055701256       -0.000000000000
        0.799529433250        0.600641369820       -0.000000000000
        0.812924742699        0.582385063171       -0.000000000000
        0.825967311859        0.563710808754       -0.000000000000
        0.838507831097        0.544885277748       -0.000000000000
        0.850453794003        0.526064634323       -0.000000000000
        0.861753761768        0.507345616817       -0.000000000000
        0.872387051582        0.488797456026       -0.000000000000
        0.882406532764        0.470499336720       -0.000000000000
        0.891772508621        0.452459633350       -0.000000000000
        0.900563478470        0.434736937284       -0.000000000000
        0.908770799637        0.417337208986       -0.000000000000
        0.916400015354        0.400268226862       -0.000000000000
        0.923497140408        0.383553743362       -0.000000000000
        0.930143356323        0.367228120565       -0.000000000000
        0.936258554459        0.351258367300       -0.000000000000
        0.941965162754        0.335691034794       -0.000000000000
        0.947255313396        0.320521563292       -0.000000000000
        0.952122628689        0.305746346712       -0.000000000000
        0.956590890884        0.291372716427       -0.000000000000
        0.960741996765        0.277424365282       -0.000000000000
        0.964553356171        0.263892591000       -0.000000000000
        0.968052208424        0.250782817602       -0.000000000000
        0.971225619316        0.238089889288       -0.000000000000
        0.974151611328        0.225830465555       -0.000000000000
        0.976818919182        0.213998407125       -0.000000000000
        0.979263067245        0.202597394586       -0.000000000000
        0.981485724449        0.191623166203       -0.000000000000
        0.983464777470        0.181065946817       -0.000000000000
        0.985308170319        0.170940354466       -0.000000000000
        0.986916005611        0.161221310496       -0.000000000000
        0.988381862640        0.151917502284       -0.000000000000
        0.989707708359        0.143020465970       -0.000000000000
        0.990898370743        0.134522080421       -0.000000000000
        0.991965293884        0.126414179802       -0.000000000000
        0.992917358875        0.118687674403       -0.000000000000
        0.993772804737        0.111334137619       -0.000000000000
        0.994545698166        0.104344010353       -0.000000000000
        0.995245158672        0.097706787288       -0.000000000000
        0.995800733566        0.091403752565       -0.000000000000
        0.996348679066        0.085436023772       -0.000000000000
        0.996807277203        0.079783894122       -0.000000000000
        0.997216224670        0.074438363314       -0.000000000000
        0.997618675232        0.069390475750       -0.000000000000
        0.997898280621        0.064619623125       -0.000000000000
        0.998213529587        0.060124423355       -0.000000000000
        0.998422265053        0.055884063244       -0.000000000000
        0.998670518398        0.051895122975       -0.000000000000
        0.998825371265        0.048138666898       -0.000000000000
        0.999005496502        0.044609446079       -0.000000000000
        0.999143362045        0.041293233633       -0.000000000000
        0.999296307564        0.038181714714       -0.000000000000
        0.999403357506        0.035261817276       -0.000000000000
        0.999425232410        0.032522149384       -0.000000000000
        0.999572455883        0.029960205778       -0.000000000000
        0.999634683132        0.027559857816       -0.000000000000
        0.999655544758        0.025313414633       -0.000000000000
        0.999704539776        0.023213973269       -0.000000000000
        0.999813377857        0.021254029125       -0.000000000000
        0.999822556973        0.019422195852       -0.000000000000
        0.999843597412        0.017712995410       -0.000000000000
        0.999863207340        0.016118975356       -0.000000000000
        0.999885141850        0.014633466490       -0.000000000000
        0.999904334545        0.013249735348       -0.000000000000
        0.999920785427        0.011961522512       -0.000000000000
        0.999936282635        0.010762928054       -0.000000000000
        0.999948620796        0.009648502804       -0.000000000000
        0.999959826469        0.008613064885       -0.000000000000
        0.999970495701        0.007651444525       -0.000000000000
        0.999984383583        0.006758966018       -0.000000000000
        0.999978363514        0.005931015592       -0.000000000000
        0.999983847141        0.005163564347       -0.000000000000
        0.999990165234        0.004452600610       -0.000000000000
        0.999999701977        0.003794409102       -0.000000000000
        0.999993503094        0.003185384441       -0.000000000000
        0.999994635582        0.002622275148       -0.000000000000
        0.999996364117        0.002101937775       -0.000000000000
        0.999999880791        0.001621456933       -0.000000000000
        0.999999761581        0.001178063801       -0.000000000000
        0.999996840954        0.000769166800       -0.000000000000
        0.999999523163        0.000392357266       -0.000000000000
        1.000000000000        0.000045343986       -0.000000000000
        0.999997794628       -0.000274020102       -0.000000000000
        0.999999463558       -0.000567731098        0.000000000000
        0.999999463558       -0.000837666506        0.000000000000
        0.999996602535       -0.001085589174        0.000000000000
        0.999997317791       -0.001313150395        0.000000000000
        0.999998986721       -0.001521892147        0.000000000000
        0.999998807907       -0.001713255653        0.000000000000
        0.999996960163       -0.001888581901        0.000000000000
        0.999997735023       -0.002049149247        0.000000000000
        0.999997913837       -0.002196138492        0.000000000000
        0.999993741512       -0.002330636838        0.000000000000
        0.999996483326       -0.002453703200        0.000000000000
        0.999996304512       -0.002566280542        0.000000000000
        0.999995589256       -0.002669275040        0.000000000000
        0.999995887280       -0.002763532102        0.000000000000
        0.999996602535       -0.002849826356        0.000000000000
        0.999993026257       -0.002928880742        0.000000000000
        0.999993801117       -0.003001405625        0.000000000000
        0.999994695187       -0.003068013582        0.000000000000
        0.999993920326       -0.003129285527        0.000000000000
        0.999991953373       -0.003185779089        0.000000000000
        0.999994814396       -0.003238030244        0.000000000000
        0.999994933605       -0.003286490450        0.000000000000
        0.999993622303       -0.003331606509        0.000000000000
        0.999992012978       -0.003373795189        0.000000000000
        0.999993801117       -0.003413450904        0.000000000000
        0.999993324280       -0.003450910794        0.000000000000
        0.999992489815       -0.003486507107        0.000000000000
        0.999992668629       -0.003520545783        0.000000000000
        0.999991476536       -0.003553308547        0.000000000000
        0.999993264675       -0.003585064784        0.000000000000
        0.999993801117       -0.003616037313        0.000000000000
        0.999993264675       -0.003646454774        0.000000000000
        0.999992668629       -0.003676519031        0.000000000000
        0.999993085861       -0.003706407500        0.000000000000
        0.999990761280       -0.003736284794        0.000000000000
        0.999992012978       -0.003766337875        0.000000000000
        0.999992251396       -0.003796671517        0.000000000000
        0.999991953373       -0.003827417968        0.000000000000
        0.999990940094       -0.003858692944        0.000000000000
        0.999990522861       -0.003890596563        0.000000000000
        0.999990701675       -0.003923217300        0.000000000000
        0.999991953373       -0.003956625704        0.000000000000
        0.999992251396       -0.003990866710        0.000000000000
        0.999992072582       -0.004026007839        0.000000000000
        0.999992251396       -0.004062088672        0.000000000000
        0.999991953373       -0.004099139012        0.000000000000
        0.999992191792       -0.004137173295        0.000000000000
        0.999992072582       -0.004176202696        0.000000000000
        0.999989390373       -0.004216216505        0.000000000000
        0.999988079071       -0.004257223569        0.000000000000
        0.999989211559       -0.004299187101        0.000000000000
        0.999989271164       -0.004342061002        0.000000000000
        0.999988198280       -0.004385790322        0.000000000000
        0.999987840652       -0.004430326167        0.000000000000
        0.999988853931       -0.004475603346        0.000000000000
        0.999988973141       -0.004521531519        0.000000000000
        0.999989151955       -0.004568009172        0.000000000000
        0.999987781048       -0.004614926875        0.000000000000
        0.999989867210       -0.004662173800        0.000000000000
        0.999989628792       -0.004709585570        0.000000000000
        0.999989807606       -0.004757018760        0.000000000000
        0.999989509583       -0.004804294091        0.000000000000
        0.999989569187       -0.004851243924        0.000000000000
        0.999975621700       -0.004897604231        0.000000000000
        1.000000238419       -0.004943388980        0.000000000000
        0.999985933304       -0.004987974185        0.000000000000
        0.999986052513       -0.005031384528        0.000000000000
        0.999985992908       -0.005073239561        0.000000000000
        0.999984622002       -0.005113238469        0.000000000000
        0.999985098839       -0.005151085556        0.000000000000
        0.999984800816       -0.005186409224        0.000000000000
        0.999985039234       -0.005218835548        0.000000000000
        0.999984383583       -0.005247953348        0.000000000000
        0.999983727932       -0.005273336079        0.000000000000
        0.999984025955       -0.005294524599        0.000000000000
        0.999984383583       -0.005311011802        0.000000000000
        0.999984264374       -0.005322294775        0.000000000000
        0.999982416630       -0.005327824969        0.000000000000
        0.999968707561       -0.005326932296        0.000000000000
        0.999986529350       -0.005319195334        0.000000000000
        0.999986886978       -0.005303640384        0.000000000000
        0.999986767769       -0.005279677920        0.000000000000
        0.999987363815       -0.005246567074        0.000000000000
        0.999986708164       -0.005203479901        0.000000000000
        0.999986588955       -0.005149584264        0.000000000000
        0.999984502792       -0.005083962344        0.000000000000
        0.999989688396       -0.005005702842        0.000000000000
        0.999988257885       -0.004913723562        0.000000000000
        0.999989092350       -0.004807013553        0.000000000000
        0.999988019466       -0.004684418906        0.000000000000
        0.999990046024       -0.004544775467        0.000000000000
        0.999990046024       -0.004386809189        0.000000000000
        0.999991118908       -0.004209180363        0.000000000000
        0.999993860722       -0.004010525998        0.000000000000
        0.999992668629       -0.003789381357        0.000000000000
        0.999992907047       -0.003544206033        0.000000000000
        0.999995827675       -0.003273376031        0.000000000000
        0.999995231628       -0.002975153038        0.000000000000
        0.999997198582       -0.002647768008        0.000000000000
        0.999997079372       -0.002289322438        0.000000000000
        0.999998867512       -0.001897840993        0.000000000000
        0.999998509884       -0.001471245429        0.000000000000
        0.999999701977       -0.001007366111       -0.000000000000
        0.999999403954       -0.000503910182       -0.000000000000
        0.999999642372        0.000041521125       -0.000000000000
        0.999998450279        0.000631447183       -0.000000000000
        0.999998688698        0.001268498017       -0.000000000000
        0.999998390675        0.001955432817       -0.000000000000
        0.999993979931        0.002695139498       -0.000000000000
        0.999993443489        0.003490658943       -0.000000000000
        0.999991059303        0.004345145542       -0.000000000000
        0.999984979630        0.005261895712       -0.000000000000
        0.999979317188        0.006244409364       -0.000000000000
        0.999972760677        0.007296321914       -0.000000000000
        0.999965667725        0.008421436884       -0.000000000000
        0.999953329563        0.009623691440       -0.000000000000
        0.999939858913        0.010907297954       -0.000000000000
        0.999924182892        0.012276626192       -0.000000000000
        0.999905347824        0.013736238703       -0.000000000000
        0.999882578850        0.015290909447       -0.000000000000
        0.999857783318        0.016945682466       -0.000000000000
        0.999827623367        0.018705727533       -0.000000000000
        0.999788582325        0.020576475188       -0.000000000000
        0.999746143818        0.022563802078       -0.000000000000
        0.999694585800        0.024673635140       -0.000000000000
        0.999638140202        0.026912411675       -0.000000000000
        0.999569535255        0.029286582023       -0.000000000000
        0.999493539333        0.031803265214       -0.000000000000
        0.999406933784        0.034469682723       -0.000000000000
        0.999304473400        0.037293333560       -0.000000000000
        0.999187171459        0.040282301605       -0.000000000000
        0.999057948589        0.043445214629       -0.000000000000
        0.998904347420        0.046790465713       -0.000000000000
        0.998733818531        0.050327766687       -0.000000000000
        0.998536288738        0.054066486657       -0.000000000000
        0.998316109180        0.058017231524       -0.000000000000
        0.998068451881        0.062190666795       -0.000000000000
        0.997775375843        0.066597133875       -0.000000000000
        0.997460782528        0.071250237525       -0.000000000000
        0.997092485428        0.076160483062       -0.000000000000
        0.996689021587        0.081342644989       -0.000000000000
        0.996219515800        0.086808301508       -0.000000000000
        0.995712339878        0.092574648559       -0.000000000000
        0.995126724243        0.098653502762       -0.000000000000
        0.994455635548        0.105060257018       -0.000000000000
        0.993724107742        0.111814461648       -0.000000000000
        0.992917895317        0.118932433426       -0.000000000000
        0.991974651814        0.126425042748       -0.000000000000
        0.990930318832        0.134315580130       -0.000000000000
        0.989782750607        0.142623335123       -0.000000000000
        0.988468527794        0.151359260082       -0.000000000000
        0.987018465996        0.160547867417       -0.000000000000
        0.985422492027        0.170207887888       -0.000000000000
        0.983608782291        0.180346384645       -0.000000000000
        0.981587231159        0.190983325243       -0.000000000000
        0.979362964630        0.202136427164       -0.000000000000
        0.976902842522        0.213813304901       -0.000000000000
        0.974129259586        0.226006522775       -0.000000000000
        0.971056103706        0.238722383976       -0.000000000000
        0.967758417130        0.251975595951       -0.000000000000
        0.964041471481        0.265699982643       -0.000000000000
        0.960022509098        0.279894232750       -0.000000000000
        0.955645799637        0.294488191605       -0.000000000000
        0.950920283794        0.309397429228       -0.000000000000
        0.945892155170        0.324505388737       -0.000000000000
        0.940563261509        0.339616477489       -0.000000000000
        0.935061872005        0.354485303164       -0.000000000000
        0.929533898830        0.368733018637       -0.000000000000
        0.924240469933        0.381803572178       -0.000000000000
        0.919600903988        0.392836838961       -0.000000000000
        0.916327595711        0.400406479836       -0.000000000000
        0.755214691162        0.655469000340       -0.000000000000
        0.765269696712        0.643711745739       -0.000000000000
        0.778244853020        0.627962946892       -0.000000000000
        0.792026042938        0.610487878323       -0.000000000000
        0.805816650391        0.592169761658       -0.000000000000
        0.819252669811        0.573432624340       -0.000000000000
        0.832165300846        0.554527878761       -0.000000000000
        0.844467639923        0.535608410835       -0.000000000000
        0.856124520302        0.516781032085       -0.000000000000
        0.867109537125        0.498107463121       -0.000000000000
        0.877458870411        0.479659557343       -0.000000000000
        0.887158453465        0.461459279060       -0.000000000000
        0.896246969700        0.443547219038       -0.000000000000
        0.904752016068        0.425948113203       -0.000000000000
        0.912696301937        0.408679604530       -0.000000000000
        0.920079588890        0.391745090485       -0.000000000000
        0.926968514919        0.375176787376       -0.000000000000
        0.933345735073        0.358967751265       -0.000000000000
        0.939294755459        0.343151956797       -0.000000000000
        0.944773793221        0.327713578939       -0.000000000000
        0.949864268303        0.312682062387       -0.000000000000
        0.954550266266        0.298050969839       -0.000000000000
        0.958883583546        0.283837139606       -0.000000000000
        0.962847411633        0.270034521818       -0.000000000000
        0.966495633125        0.256658017635       -0.000000000000
        0.969854235649        0.243712440133       -0.000000000000
        0.972900629044        0.231190115213       -0.000000000000
        0.975704073906        0.219105497003       -0.000000000000
        0.978240191936        0.207449465990       -0.000000000000
        0.980565309525        0.196230053902       -0.000000000000
        0.982654094696        0.185437038541       -0.000000000000
        0.984564781189        0.175075933337       -0.000000000000
        0.986276984215        0.165136322379       -0.000000000000
        0.987829387188        0.155617222190       -0.000000000000
        0.989206433296        0.146508216858       -0.000000000000
        0.990449249744        0.137806713581       -0.000000000000
        0.991573512554        0.129505336285       -0.000000000000
        0.992579281330        0.121593482792       -0.000000000000
        0.993477702141        0.114061936736       -0.000000000000
        0.994271159172        0.106899887323       -0.000000000000
        0.994975090027        0.100097611547       -0.000000000000
        0.995588600636        0.093642860651       -0.000000000000
        0.996136724949        0.087525814772       -0.000000000000
        0.996668040752        0.081738382578       -0.000000000000
        0.997098267078        0.076260812581       -0.000000000000
        0.997467637062        0.071084104478       -0.000000000000
        0.997818589211        0.066198736429       -0.000000000000
        0.998087525368        0.061587989330       -0.000000000000
        0.998344779015        0.057244211435       -0.000000000000
        0.998588562012        0.053155038506       -0.000000000000
        0.998785853386        0.049306664616       -0.000000000000
        0.998955607414        0.045688506216       -0.000000000000
        0.999092161655        0.042289074510       -0.000000000000
        0.999247431755        0.039099719375       -0.000000000000
        0.999375462532        0.036107756197       -0.000000000000
        0.999441862106        0.033301092684       -0.000000000000
        0.999521553516        0.030672788620       -0.000000000000
        0.999595642090        0.028212824836       -0.000000000000
        0.999662160873        0.025911476463       -0.000000000000
        0.999729037285        0.023759998381       -0.000000000000
        0.999756813049        0.021749341860       -0.000000000000
        0.999794363976        0.019872497767       -0.000000000000
        0.999859631062        0.018121646717       -0.000000000000
        0.999860107899        0.016487700865       -0.000000000000
        0.999880552292        0.014965175651       -0.000000000000
        0.999913692474        0.013547250070       -0.000000000000
        0.999936282635        0.012227200903       -0.000000000000
        0.999972760677        0.010999311693       -0.000000000000
        0.999947190285        0.009857043624       -0.000000000000
        0.999959290028        0.008796045557       -0.000000000000
        0.999971568584        0.007810773328       -0.000000000000
        0.999975144863        0.006896334700       -0.000000000000
        0.999981403351        0.006048210897       -0.000000000000
        0.999984920025        0.005261990707       -0.000000000000
        0.999988436699        0.004533686675       -0.000000000000
        0.999991893768        0.003859505756       -0.000000000000
        0.999993383884        0.003235779470       -0.000000000000
        0.999997735023        0.002659094520       -0.000000000000
        0.999999225140        0.002126261126       -0.000000000000
        0.999998271465        0.001634278800       -0.000000000000
        0.999999582767        0.001180326333       -0.000000000000
        0.999998748302        0.000761726056       -0.000000000000
        0.999998033047        0.000376006705       -0.000000000000
        0.999999940395        0.000020845111       -0.000000000000
        1.000000000000       -0.000305973605       -0.000000000000
        0.999999284744       -0.000606497575        0.000000000000
        0.999999463558       -0.000882646709        0.000000000000
        0.999997854233       -0.001136246487        0.000000000000
        0.999997317791       -0.001368987374        0.000000000000
        0.999998331070       -0.001582431025        0.000000000000
        0.999998331070       -0.001778056612        0.000000000000
        0.999996483326       -0.001957257511        0.000000000000
        0.999997854233       -0.002121337689        0.000000000000
        0.999997138977       -0.002271492733        0.000000000000
        0.999995231628       -0.002408873755        0.000000000000
        0.999996364117       -0.002534536179        0.000000000000
        0.999996006489       -0.002649444155        0.000000000000
        0.999995768070       -0.002754544606        0.000000000000
        0.999995946884       -0.002850695746        0.000000000000
        0.999995172024       -0.002938681282        0.000000000000
        0.999995231628       -0.003019275609        0.000000000000
        0.999994993210       -0.003093179082        0.000000000000
        0.999994933605       -0.003161017550        0.000000000000
        0.999993681908       -0.003223397536        0.000000000000
        0.999993264675       -0.003280909033        0.000000000000
        0.999994337559       -0.003334062640        0.000000000000
        0.999994218349       -0.003383331699        0.000000000000
        0.999993562698       -0.003429193515        0.000000000000
        0.999993860722       -0.003472072072        0.000000000000
        0.999993562698       -0.003512345022        0.000000000000
        0.999993383884       -0.003550383030        0.000000000000
        0.999991953373       -0.003586524166        0.000000000000
        0.999992072582       -0.003621082054        0.000000000000
        0.999992668629       -0.003654346801        0.000000000000
        0.999991714954       -0.003686572658        0.000000000000
        0.999992787838       -0.003718009219        0.000000000000
        0.999992907047       -0.003748882329        0.000000000000
        0.999992430210       -0.003779404797        0.000000000000
        0.999990105629       -0.003809754737        0.000000000000
        0.999992668629       -0.003840130055        0.000000000000
        0.999992609024       -0.003870660439        0.000000000000
        0.999990701675       -0.003901489079        0.000000000000
        0.999992072582       -0.003932764288        0.000000000000
        0.999991834164       -0.003964581992        0.000000000000
        0.999991595745       -0.003997052554        0.000000000000
        0.999991774559       -0.004030269105        0.000000000000
        0.999990701675       -0.004064286128        0.000000000000
        0.999990344048       -0.004099178128        0.000000000000
        0.999991416931       -0.004134998657        0.000000000000
        0.999991178513       -0.004171786364        0.000000000000
        0.999991357327       -0.004209569190        0.000000000000
        0.999990224838       -0.004248366691        0.000000000000
        0.999989867210       -0.004288190976        0.000000000000
        0.999990403652       -0.004329050891        0.000000000000
        0.999989569187       -0.004370922688        0.000000000000
        0.999989271164       -0.004413779359        0.000000000000
        0.999989211559       -0.004457571544        0.000000000000
        0.999989569187       -0.004502254538        0.000000000000
        0.999988317490       -0.004547756165        0.000000000000
        0.999989688396       -0.004594028462        0.000000000000
        0.999988496304       -0.004640958738        0.000000000000
        0.999988138676       -0.004688462708        0.000000000000
        0.999988853931       -0.004736432806        0.000000000000
        0.999986648560       -0.004784717225        0.000000000000
        0.999988973141       -0.004833197221        0.000000000000
        0.999986410141       -0.004881673958        0.000000000000
        0.999986529350       -0.004930012394        0.000000000000
        0.999987363815       -0.004978006706        0.000000000000
        0.999987542629       -0.005025492050        0.000000000000
        0.999987185001       -0.005072164815        0.000000000000
        0.999987483025       -0.005117782857        0.000000000000
        0.999987185001       -0.005162145942        0.000000000000
        0.999984443188       -0.005204897374        0.000000000000
        0.999984979630       -0.005245770328        0.000000000000
        0.999985456467       -0.005284417421        0.000000000000
        0.999985158443       -0.005320464727        0.000000000000
        0.999985635281       -0.005353528541        0.000000000000
        0.999984741211       -0.005383187439        0.000000000000
        0.999984383583       -0.005409016740        0.000000000000
        0.999984025955       -0.005430528894        0.000000000000
        0.999981522560       -0.005447200499        0.000000000000
        0.999985933304       -0.005458550062        0.000000000000
        0.999985873699       -0.005463949870        0.000000000000
        0.999983966351       -0.005462838337        0.000000000000
        0.999984622002       -0.005454529077        0.000000000000
        0.999978840351       -0.005438230932        0.000000000000
        0.999986350536       -0.005413363222        0.000000000000
        0.999984562397       -0.005379007664        0.000000000000
        0.999986708164       -0.005334421992        0.000000000000
        0.999985396862       -0.005278705619        0.000000000000
        0.999987006187       -0.005210961681        0.000000000000
        0.999986231327       -0.005130162463        0.000000000000
        0.999988079071       -0.005035288166        0.000000000000
        0.999988913536       -0.004925238900        0.000000000000
        0.999986648560       -0.004798858892        0.000000000000
        0.999988973141       -0.004654949531        0.000000000000
        0.999990105629       -0.004492190201        0.000000000000
        0.999988198280       -0.004309176002        0.000000000000
        0.999991595745       -0.004104536958        0.000000000000
        0.999989449978       -0.003876770614        0.000000000000
        0.999993205070       -0.003624290694        0.000000000000
        0.999993145466       -0.003345376579        0.000000000000
        0.999994277954       -0.003038290422        0.000000000000